 vasp.6.x compatible output generated by VPMDK
   IBRION =      2
   ISIF   =      2
   POTIM  = 2.0000    time-step for ionic-motion
   ICHAIN =      0
   number of dos      NEDOS =    301   number of ions     NIONS =      2

 INCAR:
   IBRION = 2
   NSW = 2
   EDIFFG = -0.05
   ISIF = 2
   IMAGES = 1
   LCLIMB = .TRUE.
   SPRING = -5
 POTCAR:    PAW_PBE Si
      direct lattice vectors                 reciprocal lattice vectors
   3.866974592  0.000000000  0.000000000    0.258600096 -0.149302835 -0.105573047
   1.933487296  3.348898233  0.000000000    0.000000000  0.298605670 -0.105573047
   1.933487296  1.116299411  3.157371533    0.000000000  0.000000000  0.316719141
 k-points in reciprocal lattice and weights: Gamma                                   
   0.00000000   0.00000000   0.00000000      1.00000000

--------------------------------------- Iteration      1(   1)  ---------------------------------------
 POSITION                                       TOTAL-FORCE (eV/Angst)
 -----------------------------------------------------------------------------------
       5.80046177       3.34889817       2.36802864       0.00000156       0.00000013       0.00000037
       3.86697459       2.23259878       1.57868576      -0.00000156      -0.00000013      -0.00000037
 -----------------------------------------------------------------------------------
    total drift:                                   0.000000     0.000000     0.000000

 FORCES: max atom, RMS       0.00000161       0.00000161

  FORCE on cell =-STRESS in cart. coord.  units (eV):
  Direction    XX          YY          ZZ          XY          YZ          ZX
  -------------------------------------------------------------------------------------
  Total       0.00331     0.00331     0.00331    -0.00000    -0.00000    -0.00000
  in kB          5.31        5.31        5.31       -0.00       -0.00       -0.00
  external pressure =        5.31 kB  Pullay stress =        0.00 kB

 NEB: projections on to tangent (spring, REAL)     0.000000    -0.000000     0.000002

  FREE ENERGIE OF THE ION-ELECTRON SYSTEM (eV)
  ---------------------------------------------------
  free  energy   TOTEN  =     -10.82431400 eV
  energy  without entropy=     -10.82431400  energy(sigma->0) =     -10.82431400
  kinetic energy EKIN    =       0.00000000 eV
  nose potential         =       0.00000000 eV
  nose kinetic           =       0.00000000 eV
  total energy ETOTAL    =     -10.82431400 eV

  tangential force (eV/A)        -0.000000
 TANGENT                                        CHAIN-FORCE (eV/Angst)
 -------------------------------------------------------------------------------
     0.587256     0.081471     0.057609        -0.000000    -0.000000    -0.000000
     0.797005    -0.081471    -0.057609        -0.000000     0.000000     0.000000
 -------------------------------------------------------------------------------

 CHAIN + TOTAL  (eV/Angst)
 ----------------------------------------------
     -0.00000      0.00000     -0.00000
 ----------------------------------------------

--------------------------------------- Iteration      2(   1)  ---------------------------------------
 POSITION                                       TOTAL-FORCE (eV/Angst)
 -----------------------------------------------------------------------------------
       5.89889278       3.36255368       2.37768453       0.35694630      -0.28906458      -0.20439927
       4.00056205       2.21894328       1.56902987      -0.35694630       0.28906458       0.20439927
 -----------------------------------------------------------------------------------
    total drift:                                   0.000000     0.000000     0.000000

 FORCES: max atom, RMS       0.50274054       0.50274054

  FORCE on cell =-STRESS in cart. coord.  units (eV):
  Direction    XX          YY          ZZ          XY          YZ          ZX
  -------------------------------------------------------------------------------------
  Total       0.00879     0.00104    -0.00098    -0.00488     0.00285    -0.00345
  in kB         14.09        1.66       -1.56       -7.82        4.56       -5.53
  external pressure =        4.73 kB  Pullay stress =        0.00 kB

 NEB: projections on to tangent (spring, REAL)     0.000000    -0.298330     0.561576

  FREE ENERGIE OF THE ION-ELECTRON SYSTEM (eV)
  ---------------------------------------------------
  free  energy   TOTEN  =     -10.81183173 eV
  energy  without entropy=     -10.81183173  energy(sigma->0) =     -10.81183173
  kinetic energy EKIN    =       0.00000000 eV
  nose potential         =       0.00000000 eV
  nose kinetic           =       0.00000000 eV
  total energy ETOTAL    =     -10.81183173 eV

  tangential force (eV/A)        -0.298330
 TANGENT                                        CHAIN-FORCE (eV/Angst)
 -------------------------------------------------------------------------------
     0.384368     0.134543     0.095136        -0.114669    -0.040138    -0.028382
     0.893284    -0.134543    -0.095136        -0.266493     0.040138     0.028382
 -------------------------------------------------------------------------------

 CHAIN + TOTAL  (eV/Angst)
 ----------------------------------------------
     -0.38116      0.00000      0.00000
 ----------------------------------------------

--------------------------------------- Iteration      3(   1)  ---------------------------------------
 POSITION                                       TOTAL-FORCE (eV/Angst)
 -----------------------------------------------------------------------------------
       5.94006246       3.39776349       2.40258163       1.43196209      -0.69559979      -0.49186298
       4.19141085       2.18373346       1.54413277      -1.43196209       0.69559979       0.49186298
 -----------------------------------------------------------------------------------
    total drift:                                   0.000000     0.000000     0.000000

 FORCES: max atom, RMS       1.66622438       1.66622438

  FORCE on cell =-STRESS in cart. coord.  units (eV):
  Direction    XX          YY          ZZ          XY          YZ          ZX
  -------------------------------------------------------------------------------------
  Total       0.01551    -0.00785    -0.01326    -0.02290     0.00765    -0.01619
  in kB         24.86      -12.58      -21.25      -36.69       12.26      -25.94
  external pressure =       -2.99 kB  Pullay stress =        0.00 kB

 NEB: projections on to tangent (spring, REAL)     0.000000    -1.407098     1.802824

  FREE ENERGIE OF THE ION-ELECTRON SYSTEM (eV)
  ---------------------------------------------------
  free  energy   TOTEN  =     -10.61265320 eV
  energy  without entropy=     -10.61265320  energy(sigma->0) =     -10.61265320
  kinetic energy EKIN    =       0.00000000 eV
  nose potential         =       0.00000000 eV
  nose kinetic           =       0.00000000 eV
  total energy ETOTAL    =     -10.61265320 eV

  tangential force (eV/A)        -1.407098
 TANGENT                                        CHAIN-FORCE (eV/Angst)
 -------------------------------------------------------------------------------
     0.201277     0.172140     0.121721        -0.283217    -0.242218    -0.171274
     0.933055    -0.172140    -0.121721        -1.312900     0.242218     0.171274
 -------------------------------------------------------------------------------

 CHAIN + TOTAL  (eV/Angst)
 ----------------------------------------------
     -1.59612     -0.00000      0.00000
 ----------------------------------------------

 General timing and accounting informations for this job:
 ========================================================
   Total CPU time used (sec):           0.003
   User time (sec):                    0.003
   System time (sec):                  0.000
   Elapsed time (sec):                 0.003
   Maximum memory used (kb):      1405324.0
   Average memory used (kb):      1405324.0
   Number of ionic steps:                    3

