 vasp.6.x compatible output generated by VPMDK
   IBRION =      0
   ISIF   =      0
   MDALGO =      0
   POTIM  = 1.0000    time-step for ionic-motion
   ICHAIN =      0
   number of dos      NEDOS =    301   number of ions     NIONS =      2

 INCAR:
   IBRION = 0
   NSW = 4
   POTIM = 1.0
   TEBEG = 300
   TEEND = 300
   MDALGO = 0
 POTCAR:    PAW_PBE Si
      direct lattice vectors                 reciprocal lattice vectors
   3.866974592  0.000000000  0.000000000    0.258600096 -0.149302835 -0.105573047
   1.933487296  3.348898233  0.000000000    0.000000000  0.298605670 -0.105573047
   1.933487296  1.116299411  3.157371533    0.000000000  0.000000000  0.316719141
 k-points in reciprocal lattice and weights: Gamma                                   
   0.00000000   0.00000000   0.00000000      1.00000000

Time[ps]      Etot[eV]     Epot[eV]     Ekin[eV]    T[K]
0.0000         -10.7137     -10.7417       0.0280   108.4
0.0010         -10.7137     -10.7417       0.0279   108.1

--------------------------------------- Ionic step        1  -------------------------------------------


--------------------------------------- Iteration      1(   1)  ---------------------------------------
 POSITION                                       TOTAL-FORCE (eV/Angst)
 -----------------------------------------------------------------------------------
       5.79695858       3.35109899       2.36756451       0.03294772      -0.00865006       0.00533488
       3.86785594       2.23364066       1.57892411      -0.03294772       0.00865006      -0.00533488
 -----------------------------------------------------------------------------------
    total drift:                                  -0.000000    -0.000000    -0.000000

 FORCES: max atom, RMS       0.03447951       0.03447951

  FREE ENERGIE OF THE ION-ELECTRON SYSTEM (eV)
  ---------------------------------------------------
  free  energy   TOTEN  =     -10.74166766 eV
  energy  without entropy=     -10.74166766  energy(sigma->0) =     -10.74166766
  kinetic energy EKIN    =       0.02793811 eV
  nose potential         =       0.00000000 eV
  nose kinetic           =       0.00000000 eV
  total energy ETOTAL    =     -10.71372955 eV

0.0020         -10.7137     -10.7414       0.0277   107.2

--------------------------------------- Ionic step        2  -------------------------------------------


--------------------------------------- Iteration      2(   1)  ---------------------------------------
 POSITION                                       TOTAL-FORCE (eV/Angst)
 -----------------------------------------------------------------------------------
       5.79346671       3.35329683       2.36710221       0.06570724      -0.01713455       0.01074937
       3.86872597       2.23468552       1.57916062      -0.06570724       0.01713455      -0.01074937
 -----------------------------------------------------------------------------------
    total drift:                                  -0.000000    -0.000000     0.000000

 FORCES: max atom, RMS       0.06875015       0.06875015

  FREE ENERGIE OF THE ION-ELECTRON SYSTEM (eV)
  ---------------------------------------------------
  free  energy   TOTEN  =     -10.74143201 eV
  energy  without entropy=     -10.74143201  energy(sigma->0) =     -10.74143201
  kinetic energy EKIN    =       0.02770277 eV
  nose potential         =       0.00000000 eV
  nose kinetic           =       0.00000000 eV
  total energy ETOTAL    =     -10.71372924 eV

0.0030         -10.7137     -10.7410       0.0273   105.7

--------------------------------------- Ionic step        3  -------------------------------------------


--------------------------------------- Iteration      3(   1)  ---------------------------------------
 POSITION                                       TOTAL-FORCE (eV/Angst)
 -----------------------------------------------------------------------------------
       5.78999742       3.35548879       2.36664360       0.09813664      -0.02541813       0.01621494
       3.86957342       2.23573626       1.57939344      -0.09813664       0.02541813      -0.01621494
 -----------------------------------------------------------------------------------
    total drift:                                  -0.000000     0.000000    -0.000000

 FORCES: max atom, RMS       0.10266356       0.10266356

  FREE ENERGIE OF THE ION-ELECTRON SYSTEM (eV)
  ---------------------------------------------------
  free  energy   TOTEN  =     -10.74104477 eV
  energy  without entropy=     -10.74104477  energy(sigma->0) =     -10.74104477
  kinetic energy EKIN    =       0.02731603 eV
  nose potential         =       0.00000000 eV
  nose kinetic           =       0.00000000 eV
  total energy ETOTAL    =     -10.71372875 eV

0.0040         -10.7137     -10.7405       0.0268   103.6

--------------------------------------- Ionic step        4  -------------------------------------------


--------------------------------------- Iteration      4(   1)  ---------------------------------------
 POSITION                                       TOTAL-FORCE (eV/Angst)
 -----------------------------------------------------------------------------------
       5.78656184       3.35767201       2.36619057       0.13009247      -0.03346787       0.02170102
       3.87038716       2.23679573       1.57962069      -0.13009247       0.03346787      -0.02170102
 -----------------------------------------------------------------------------------
    total drift:                                   0.000000     0.000000    -0.000000

 FORCES: max atom, RMS       0.13607014       0.13607014

  FREE ENERGIE OF THE ION-ELECTRON SYSTEM (eV)
  ---------------------------------------------------
  free  energy   TOTEN  =     -10.74051389 eV
  energy  without entropy=     -10.74051389  energy(sigma->0) =     -10.74051389
  kinetic energy EKIN    =       0.02678582 eV
  nose potential         =       0.00000000 eV
  nose kinetic           =       0.00000000 eV
  total energy ETOTAL    =     -10.71372807 eV

 General timing and accounting informations for this job:
 ========================================================
   Total CPU time used (sec):           0.575
   User time (sec):                    0.575
   System time (sec):                  0.000
   Elapsed time (sec):                 0.575
   Maximum memory used (kb):       931536.0
   Average memory used (kb):       931536.0
   Number of ionic steps:                    4

   Minor page faults:                   124018
   Major page faults:                       60
   Voluntary context switches:           1089
   Involuntary context switches:           24

