 vasp.6.x compatible output generated by VPMDK
   IBRION =      0
   ISIF   =      0
   MDALGO =      0
   POTIM  = 1.0000    time-step for ionic-motion
   ICHAIN =      0
   number of dos      NEDOS =    301   number of ions     NIONS =      2

 INCAR:
   IBRION = 0
   NSW = 4
   POTIM = 1.0
   TEBEG = 300
   TEEND = 300
   MDALGO = 0
 POTCAR:    PAW_PBE Si
      direct lattice vectors                 reciprocal lattice vectors
   3.866974592  0.000000000  0.000000000    0.258600096 -0.149302835 -0.105573047
   1.933487296  3.348898233  0.000000000    0.000000000  0.298605670 -0.105573047
   1.933487296  1.116299411  3.157371533    0.000000000  0.000000000  0.316719141
 k-points in reciprocal lattice and weights: Gamma                                   
   0.00000000   0.00000000   0.00000000      1.00000000

Time[ps]      Etot[eV]     Epot[eV]     Ekin[eV]    T[K]
0.0000         -10.5717     -10.7417       0.1701   657.9
0.0010         -10.5717     -10.7413       0.1696   656.2
--------------------------------------- Iteration      1(   1)  ---------------------------------------
 POSITION                                       TOTAL-FORCE (eV/Angst)
 -----------------------------------------------------------------------------------
       5.79930649       3.34910211       2.35728681       0.01003927      -0.00342696       0.07959852
       3.86714411       2.23234983       1.57860386      -0.01003927       0.00342696      -0.07959852
 -----------------------------------------------------------------------------------
    total drift:                                   0.000000    -0.000000     0.000000

 FORCES: max atom, RMS       0.08030228       0.08030228

  FREE ENERGIE OF THE ION-ELECTRON SYSTEM (eV)
  ---------------------------------------------------
  free  energy   TOTEN  =     -10.74131422 eV
  energy  without entropy=     -10.74131422  energy(sigma->0) =     -10.74131422
  kinetic energy EKIN    =       0.16964800 eV
  nose potential         =       0.00000000 eV
  nose kinetic           =       0.00000000 eV
  total energy ETOTAL    =     -10.57166622 eV

0.0020         -10.5717     -10.7400       0.1684   651.3
--------------------------------------- Iteration      2(   1)  ---------------------------------------
 POSITION                                       TOTAL-FORCE (eV/Angst)
 -----------------------------------------------------------------------------------
       5.79815467       3.34930487       2.34657233       0.02020545      -0.00688797       0.15793228
       3.86731017       2.23210206       1.57849461      -0.02020545       0.00688797      -0.15793228
 -----------------------------------------------------------------------------------
    total drift:                                  -0.000000    -0.000000     0.000000

 FORCES: max atom, RMS       0.15936847       0.15936847

  FREE ENERGIE OF THE ION-ELECTRON SYSTEM (eV)
  ---------------------------------------------------
  free  energy   TOTEN  =     -10.74003184 eV
  energy  without entropy=     -10.74003184  energy(sigma->0) =     -10.74003184
  kinetic energy EKIN    =       0.16836784 eV
  nose potential         =       0.00000000 eV
  nose kinetic           =       0.00000000 eV
  total energy ETOTAL    =     -10.57166400 eV

0.0030         -10.5717     -10.7379       0.1663   643.2
--------------------------------------- Iteration      3(   1)  ---------------------------------------
 POSITION                                       TOTAL-FORCE (eV/Angst)
 -----------------------------------------------------------------------------------
       5.79700979       3.34950526       2.33591211       0.03047898      -0.01037487       0.23490841
       3.86746930       2.23185665       1.57833111      -0.03047898       0.01037487      -0.23490841
 -----------------------------------------------------------------------------------
    total drift:                                   0.000000     0.000000     0.000000

 FORCES: max atom, RMS       0.23710455       0.23710455

  FREE ENERGIE OF THE ION-ELECTRON SYSTEM (eV)
  ---------------------------------------------------
  free  energy   TOTEN  =     -10.73793282 eV
  energy  without entropy=     -10.73793282  energy(sigma->0) =     -10.73793282
  kinetic energy EKIN    =       0.16627182 eV
  nose potential         =       0.00000000 eV
  nose kinetic           =       0.00000000 eV
  total energy ETOTAL    =     -10.57166100 eV

0.0040         -10.5717     -10.7351       0.1634   632.1
--------------------------------------- Iteration      4(   1)  ---------------------------------------
 POSITION                                       TOTAL-FORCE (eV/Angst)
 -----------------------------------------------------------------------------------
       5.79587537       3.34970209       2.32533258       0.04083284      -0.01387751       0.31037297
       3.86761795       2.23161481       1.57808690      -0.04083284       0.01387751      -0.31037297
 -----------------------------------------------------------------------------------
    total drift:                                   0.000000     0.000000    -0.000000

 FORCES: max atom, RMS       0.31335488       0.31335488

  FREE ENERGIE OF THE ION-ELECTRON SYSTEM (eV)
  ---------------------------------------------------
  free  energy   TOTEN  =     -10.73506375 eV
  energy  without entropy=     -10.73506375  energy(sigma->0) =     -10.73506375
  kinetic energy EKIN    =       0.16340653 eV
  nose potential         =       0.00000000 eV
  nose kinetic           =       0.00000000 eV
  total energy ETOTAL    =     -10.57165722 eV

 General timing and accounting informations for this job:
 ========================================================
   Total CPU time used (sec):           0.617
   User time (sec):                    0.617
   System time (sec):                  0.000
   Elapsed time (sec):                 0.617
   Maximum memory used (kb):       939784.0
   Average memory used (kb):       939784.0
   Number of ionic steps:                    4

