<?xml version='1.0' encoding='utf-8'?>
<modeling>
 <generator>
  <i name="program" type="string">VPMDK</i>
  <i name="version" type="string">0</i>
 </generator>
 <incar>
  <i name="IBRION" type="int">0</i>
  <i name="ISIF" type="int">0</i>
  <i name="NSW" type="int">4</i>
  <i name="POTIM" type="float">1.000000</i>
  <i name="MDALGO" type="int">0</i>
 </incar>
 <structure name="primitive_cell">
  <crystal>
   <varray name="basis">
    <v>      3.86697459       0.00000000       0.00000000</v>
    <v>      1.93348730       3.34889823       0.00000000</v>
    <v>      1.93348730       1.11629941       3.15737153</v>
   </varray>
   <i name="volume">     40.88829091</i>
   <varray name="rec_basis">
    <v>      0.25860010      -0.14930283      -0.10557305</v>
    <v>      0.00000000       0.29860567      -0.10557305</v>
    <v>      0.00000000       0.00000000       0.31671914</v>
   </varray>
  </crystal>
  <varray name="positions">
   <v>      0.74999998       0.74999998       0.75000000</v>
   <v>      0.50000001       0.49999999       0.50000000</v>
  </varray>
 </structure>
 <varray name="primitive_index">
  <v>        1 </v>
  <v>        2 </v>
 </varray>
 <kpoints>
  <generation param="Gamma" />
  <varray name="kpointlist">
   <v>       0.00000000       0.00000000       0.00000000 </v>
  </varray>
  <varray name="weights">
   <v>       1.00000000 </v>
  </varray>
 </kpoints>
 <parameters>
  <separator name="electronic">
   <i name="NELM" type="int">60</i>
  </separator>
  <separator name="ionic">
   <i name="IBRION" type="int">0</i>
   <i name="ISIF" type="int">0</i>
   <i name="NSW" type="int">4</i>
   <i name="POTIM" type="float">1.000000</i>
  </separator>
 </parameters>
 <atominfo>
  <atoms>2</atoms>
  <types>1</types>
  <array name="atoms">
   <field type="string">element</field>
   <set>
    <rc>
     <c>Si</c>
    </rc>
    <rc>
     <c>Si</c>
    </rc>
   </set>
  </array>
  <array name="atomtypes">
   <field type="int">atomspertype</field>
   <field type="string">element</field>
   <field type="float">mass</field>
   <field type="float">valence</field>
   <field type="string">pseudopotential</field>
   <set>
    <rc>
     <c>2</c>
     <c>Si</c>
     <c>  1.0000</c>
     <c>  0.0000</c>
     <c>PAW_PBE Si</c>
    </rc>
   </set>
  </array>
 </atominfo>
 <structure name="initialpos">
  <crystal>
   <varray name="basis">
    <v>      3.86697459       0.00000000       0.00000000</v>
    <v>      1.93348730       3.34889823       0.00000000</v>
    <v>      1.93348730       1.11629941       3.15737153</v>
   </varray>
   <i name="volume">     40.88829091</i>
   <varray name="rec_basis">
    <v>      0.25860010      -0.14930283      -0.10557305</v>
    <v>      0.00000000       0.29860567      -0.10557305</v>
    <v>      0.00000000       0.00000000       0.31671914</v>
   </varray>
  </crystal>
  <varray name="positions">
   <v>      0.74999998       0.74999998       0.75000000</v>
   <v>      0.50000001       0.49999999       0.50000000</v>
  </varray>
 </structure>
 <calculation>
  <structure>
   <crystal>
    <varray name="basis">
     <v>      3.86697459       0.00000000       0.00000000</v>
     <v>      1.93348730       3.34889823       0.00000000</v>
     <v>      1.93348730       1.11629941       3.15737153</v>
    </varray>
    <i name="volume">     40.88829091</i>
    <varray name="rec_basis">
     <v>      0.25860010      -0.14930283      -0.10557305</v>
     <v>      0.00000000       0.29860567      -0.10557305</v>
     <v>      0.00000000       0.00000000       0.31671914</v>
    </varray>
   </crystal>
   <varray name="positions">
    <v>      0.74881447       0.75070616       0.74985300</v>
    <v>      0.50004720       0.50028594       0.50007549</v>
   </varray>
  </structure>
  <varray name="forces">
   <v>      0.03294772      -0.00865006       0.00533488</v>
   <v>     -0.03294772       0.00865006      -0.00533488</v>
  </varray>
  <energy>
   <i name="e_fr_energy">    -10.74166766</i>
   <i name="e_wo_entrp">    -10.74166766</i>
   <i name="e_0_energy">    -10.74166766</i>
   <i name="kinetic">      0.02793811</i>
   <i name="nosepot">      0.00000000</i>
   <i name="nosekinetic">      0.00000000</i>
   <i name="total">    -10.71372955</i>
  </energy>
 </calculation>
 <calculation>
  <structure>
   <crystal>
    <varray name="basis">
     <v>      3.86697459       0.00000000       0.00000000</v>
     <v>      1.93348730       3.34889823       0.00000000</v>
     <v>      1.93348730       1.11629941       3.15737153</v>
    </varray>
    <i name="volume">     40.88829091</i>
    <varray name="rec_basis">
     <v>      0.25860010      -0.14930283      -0.10557305</v>
     <v>      0.00000000       0.29860567      -0.10557305</v>
     <v>      0.00000000       0.00000000       0.31671914</v>
    </varray>
   </crystal>
   <varray name="positions">
    <v>      0.74763213       0.75141125       0.74970658</v>
    <v>      0.50009122       0.50057297       0.50015040</v>
   </varray>
  </structure>
  <varray name="forces">
   <v>      0.06570724      -0.01713455       0.01074937</v>
   <v>     -0.06570724       0.01713455      -0.01074937</v>
  </varray>
  <energy>
   <i name="e_fr_energy">    -10.74143201</i>
   <i name="e_wo_entrp">    -10.74143201</i>
   <i name="e_0_energy">    -10.74143201</i>
   <i name="kinetic">      0.02770277</i>
   <i name="nosepot">      0.00000000</i>
   <i name="nosekinetic">      0.00000000</i>
   <i name="total">    -10.71372924</i>
  </energy>
 </calculation>
 <calculation>
  <structure>
   <crystal>
    <varray name="basis">
     <v>      3.86697459       0.00000000       0.00000000</v>
     <v>      1.93348730       3.34889823       0.00000000</v>
     <v>      1.93348730       1.11629941       3.15737153</v>
    </varray>
    <i name="volume">     40.88829091</i>
    <varray name="rec_basis">
     <v>      0.25860010      -0.14930283      -0.10557305</v>
     <v>      0.00000000       0.29860567      -0.10557305</v>
     <v>      0.00000000       0.00000000       0.31671914</v>
    </varray>
   </crystal>
   <varray name="positions">
    <v>      0.74645612       0.75211420       0.74956133</v>
    <v>      0.50012892       0.50086215       0.50022413</v>
   </varray>
  </structure>
  <varray name="forces">
   <v>      0.09813664      -0.02541813       0.01621494</v>
   <v>     -0.09813664       0.02541813      -0.01621494</v>
  </varray>
  <energy>
   <i name="e_fr_energy">    -10.74104477</i>
   <i name="e_wo_entrp">    -10.74104477</i>
   <i name="e_0_energy">    -10.74104477</i>
   <i name="kinetic">      0.02731603</i>
   <i name="nosepot">      0.00000000</i>
   <i name="nosekinetic">      0.00000000</i>
   <i name="total">    -10.71372875</i>
  </energy>
 </calculation>
 <calculation>
  <structure>
   <crystal>
    <varray name="basis">
     <v>      3.86697459       0.00000000       0.00000000</v>
     <v>      1.93348730       3.34889823       0.00000000</v>
     <v>      1.93348730       1.11629941       3.15737153</v>
    </varray>
    <i name="volume">     40.88829091</i>
    <varray name="rec_basis">
     <v>      0.25860010      -0.14930283      -0.10557305</v>
     <v>      0.00000000       0.29860567      -0.10557305</v>
     <v>      0.00000000       0.00000000       0.31671914</v>
    </varray>
   </crystal>
   <varray name="positions">
    <v>      0.74528955       0.75281395       0.74941784</v>
    <v>      0.50015718       0.50115452       0.50029611</v>
   </varray>
  </structure>
  <varray name="forces">
   <v>      0.13009247      -0.03346787       0.02170102</v>
   <v>     -0.13009247       0.03346787      -0.02170102</v>
  </varray>
  <energy>
   <i name="e_fr_energy">    -10.74051389</i>
   <i name="e_wo_entrp">    -10.74051389</i>
   <i name="e_0_energy">    -10.74051389</i>
   <i name="kinetic">      0.02678582</i>
   <i name="nosepot">      0.00000000</i>
   <i name="nosekinetic">      0.00000000</i>
   <i name="total">    -10.71372807</i>
  </energy>
 </calculation>
 <structure name="finalpos">
  <crystal>
   <varray name="basis">
    <v>      3.86697459       0.00000000       0.00000000</v>
    <v>      1.93348730       3.34889823       0.00000000</v>
    <v>      1.93348730       1.11629941       3.15737153</v>
   </varray>
   <i name="volume">     40.88829091</i>
   <varray name="rec_basis">
    <v>      0.25860010      -0.14930283      -0.10557305</v>
    <v>      0.00000000       0.29860567      -0.10557305</v>
    <v>      0.00000000       0.00000000       0.31671914</v>
   </varray>
  </crystal>
  <varray name="positions">
   <v>      0.74528955       0.75281395       0.74941784</v>
   <v>      0.50015718       0.50115452       0.50029611</v>
  </varray>
 </structure>
</modeling>