Si
           1
     3.866975    0.000000    0.000000
     1.933487    3.348898    0.000000
     1.933487    1.116299    3.157372
 Si              
                2
Direct configuration=     1
  0.74881447  0.75070616  0.74985300
  0.50004720  0.50028594  0.50007549
Direct configuration=     2
  0.74763213  0.75141125  0.74970658
  0.50009122  0.50057297  0.50015040
Direct configuration=     3
  0.74645612  0.75211420  0.74956133
  0.50012892  0.50086215  0.50022413
Direct configuration=     4
  0.74528955  0.75281395  0.74941784
  0.50015718  0.50115452  0.50029611
