Si
           1
     3.866975    0.000000    0.000000
     1.933487    3.348898    0.000000
     1.933487    1.116299    3.157372
 Si              
                2
Direct configuration=     1
  0.75080482  0.75119493  0.74659785
  0.50008966  0.49993430  0.49997406
Direct configuration=     2
  0.75160785  0.75238663  0.74320437
  0.50018113  0.49987184  0.49993946
Direct configuration=     3
  0.75240730  0.75357190  0.73982808
  0.50027618  0.49981583  0.49988767
Direct configuration=     4
  0.75320146  0.75474759  0.73647734
  0.50037651  0.49976939  0.49981033
