Si
 1.0000000000000000
     5.4687279999999996    0.0000000000000000    0.0000000000000000
     0.0000000000000000    5.4687279999999996    0.0000000000000000
     0.0000000000000000    0.0000000000000000    5.4687279999999996
 Si 
   2
Direct
  0.0000000000000000  0.0000000000000000  0.0000000000000000
  0.2500000000000000  0.2500000000000000  0.2500000000000000

   24   24   24
 -1.0908010886E+02 -1.0871968625E+02 -1.0691108072E+02 -1.0456504855E+02 -1.0152332238E+02
 -9.7939051593E+01 -9.4449507260E+01 -9.0327234673E+01 -8.6823944914E+01 -8.3494568907E+01
 -8.0449382008E+01 -7.8592657738E+01 -7.7851915786E+01 -7.7514153639E+01 -7.8029153786E+01
 -7.9364024693E+01 -8.1978711691E+01 -8.6003508740E+01 -9.0433103694E+01 -9.4802160285E+01
 -9.9194593848E+01 -1.0316066576E+02 -1.0607704535E+02 -1.0815665023E+02 -1.0871968625E+02
 -1.0854140516E+02 -1.0726773064E+02 -1.0500251378E+02 -1.0199376688E+02 -9.8933089566E+01
 -9.5622420986E+01 -9.2041630424E+01 -8.8235522119E+01 -8.5406713563E+01 -8.2130681505E+01
 -8.0020724579E+01 -7.8498867144E+01 -7.7949951865E+01 -7.8180563060E+01 -7.9329831729E+01
 -8.1991998936E+01 -8.5744490333E+01 -8.9889701208E+01 -9.4047955615E+01 -9.8386382329E+01
 -1.0236112068E+02 -1.0518518171E+02 -1.0735489224E+02 -1.0691108072E+02 -1.0726773064E+02
 -1.0661786448E+02 -1.0471633597E+02 -1.0202202786E+02 -9.9173595517E+01 -9.6381304949E+01
 -9.3185327809E+01 -8.9552285134E+01 -8.6312478608E+01 -8.3595505173E+01 -8.1067740931E+01
 -7.9265457320E+01 -7.8111314386E+01 -7.8011401716E+01 -7.9072719159E+01 -8.1336225160E+01
 -8.4679141873E+01 -8.8631478108E+01 -9.2402530704E+01 -9.6361495939E+01 -1.0055427963E+02
 -1.0347077621E+02 -1.0555648367E+02 -1.0456504855E+02 -1.0500251378E+02 -1.0471633597E+02
 -1.0338790396E+02 -1.0140703218E+02 -9.8992682322E+01 -9.6638900071E+01 -9.3788586261E+01
 -9.0342383886E+01 -8.7096006853E+01 -8.4615883670E+01 -8.1733823776E+01 -7.9687885439E+01
 -7.8185364210E+01 -7.7659421339E+01 -7.8296877630E+01 -8.0090260834E+01 -8.2979495646E+01
 -8.6741023929E+01 -9.0194908144E+01 -9.3592504355E+01 -9.7543193089E+01 -1.0082994853E+02
 -1.0313640167E+02 -1.0152332238E+02 -1.0199376688E+02 -1.0202202786E+02 -1.0140703218E+02
 -1.0004328126E+02 -9.8316485378E+01 -9.6381304949E+01 -9.3905042185E+01 -9.0652426093E+01
 -8.7650951596E+01 -8.5008378932E+01 -8.1949904789E+01 -7.9632396814E+01 -7.7777534513E+01
 -7.7122301780E+01 -7.7246254322E+01 -7.8383410444E+01 -8.0759653305E+01 -8.3952749755E+01
 -8.7589721088E+01 -9.0812847881E+01 -9.3954759681E+01 -9.7484058514E+01 -9.9934195222E+01
 -9.7939051593E+01 -9.8933089566E+01 -9.9173595517E+01 -9.8992682322E+01 -9.8316485378E+01
 -9.7288717496E+01 -9.5622420986E+01 -9.3440982974E+01 -9.0430101147E+01 -8.7720751062E+01
 -8.4656223082E+01 -8.1644395648E+01 -7.9005356826E+01 -7.7282879544E+01 -7.6435795767E+01
 -7.6315654900E+01 -7.6934028445E+01 -7.8207356891E+01 -8.0952552316E+01 -8.4196141271E+01
 -8.7824397419E+01 -9.0567886852E+01 -9.3591938940E+01 -9.6347857748E+01 -9.4449507260E+01
 -9.5622420986E+01 -9.6381304949E+01 -9.6638900071E+01 -9.6381304949E+01 -9.5622420986E+01
 -9.4449507260E+01 -9.2238258247E+01 -8.9785343209E+01 -8.7309597116E+01 -8.3613832407E+01
 -8.0633190517E+01 -7.8159116296E+01 -7.6616728460E+01 -7.5691768561E+01 -7.5413594295E+01
 -7.5691768561E+01 -7.6616728460E+01 -7.8159116296E+01 -8.0633190517E+01 -8.3613832407E+01
 -8.7309597116E+01 -8.9785343209E+01 -9.2238258247E+01 -9.0327234673E+01 -9.2041630424E+01
 -9.3185327809E+01 -9.3788586261E+01 -9.3905042185E+01 -9.3440982974E+01 -9.2238258247E+01
 -9.0531914781E+01 -8.8638087611E+01 -8.5540473125E+01 -8.2007508845E+01 -7.9295916598E+01
 -7.7476743660E+01 -7.6435396078E+01 -7.5986120510E+01 -7.5721823275E+01 -7.5760125244E+01
 -7.5981728798E+01 -7.6495768716E+01 -7.8082234525E+01 -7.9904673220E+01 -8.2762688368E+01
 -8.6308715676E+01 -8.8444247866E+01 -8.6823944914E+01 -8.8235522119E+01 -8.9552285134E+01
 -9.0342383886E+01 -9.0652426093E+01 -9.0430101147E+01 -8.9785343209E+01 -8.8638087611E+01
 -8.6308842407E+01 -8.2842450829E+01 -7.9987428480E+01 -7.8391711317E+01 -7.7364026297E+01
 -7.6746842072E+01 -7.6052980794E+01 -7.5692733665E+01 -7.5701039412E+01 -7.6034380602E+01
 -7.6311950459E+01 -7.6683583869E+01 -7.7862814641E+01 -7.9177403734E+01 -8.1790155649E+01
 -8.4970827600E+01 -8.3494568907E+01 -8.5406713563E+01 -8.6312478608E+01 -8.7096006853E+01
 -8.7650951596E+01 -8.7720751062E+01 -8.7309597116E+01 -8.5540473125E+01 -8.2842450829E+01
 -8.0214091520E+01 -7.8958568762E+01 -7.8130879683E+01 -7.7375300471E+01 -7.6485406030E+01
 -7.5884340997E+01 -7.5573436046E+01 -7.5528860898E+01 -7.5756064982E+01 -7.6241921903E+01
 -7.6623625544E+01 -7.6896676958E+01 -7.7784494962E+01 -7.8681642308E+01 -8.1007850845E+01
 -8.0449382008E+01 -8.2130681505E+01 -8.3595505173E+01 -8.4615883670E+01 -8.5008378932E+01
 -8.4656223082E+01 -8.3613832407E+01 -8.2007508845E+01 -7.9987428480E+01 -7.8958568762E+01
 -7.8423072333E+01 -7.7767386294E+01 -7.6879656027E+01 -7.6204677649E+01 -7.5775191595E+01
 -7.5562074136E+01 -7.5537293376E+01 -7.5668099133E+01 -7.6024495594E+01 -7.6574809786E+01
 -7.6913610152E+01 -7.7057620292E+01 -7.7772475026E+01 -7.8611920831E+01 -7.8592657738E+01
 -8.0020724579E+01 -8.1067740931E+01 -8.1733823776E+01 -8.1949904789E+01 -8.1644395648E+01
 -8.0633190517E+01 -7.9295916598E+01 -7.8391711317E+01 -7.8130879683E+01 -7.7767386294E+01
 -7.7034365177E+01 -7.6420334601E+01 -7.6118217948E+01 -7.5997404432E+01 -7.5879817679E+01
 -7.5694581012E+01 -7.5783180515E+01 -7.6038548098E+01 -7.6447571990E+01 -7.7000216081E+01
 -7.7162070903E+01 -7.7092305557E+01 -7.7788131163E+01 -7.7851915786E+01 -7.8498867144E+01
 -7.9265457320E+01 -7.9687885439E+01 -7.9632396814E+01 -7.9005356826E+01 -7.8159116296E+01
 -7.7476743660E+01 -7.7364026297E+01 -7.7375300471E+01 -7.6879656027E+01 -7.6420334601E+01
 -7.6341400764E+01 -7.6489056854E+01 -7.6340747613E+01 -7.6184239859E+01 -7.6151119233E+01
 -7.6159663818E+01 -7.6196059950E+01 -7.6570286469E+01 -7.7020970698E+01 -7.7496221220E+01
 -7.7374559582E+01 -7.7156611727E+01 -7.7514153639E+01 -7.7949951865E+01 -7.8111314386E+01
 -7.8185364210E+01 -7.7777534513E+01 -7.7282879544E+01 -7.6616728460E+01 -7.6435396078E+01
 -7.6746842072E+01 -7.6485406030E+01 -7.6204677649E+01 -7.6118217948E+01 -7.6489056854E+01
 -7.6433924050E+01 -7.6338456708E+01 -7.6333333857E+01 -7.6419652204E+01 -7.6604430691E+01
 -7.6697119701E+01 -7.6948485513E+01 -7.7344075933E+01 -7.7782457519E+01 -7.7869799462E+01
 -7.7376216832E+01 -7.8029153786E+01 -7.8180563060E+01 -7.8011401716E+01 -7.7659421339E+01
 -7.7122301780E+01 -7.6435795767E+01 -7.5691768561E+01 -7.5986120510E+01 -7.6052980794E+01
 -7.5884340997E+01 -7.5775191595E+01 -7.5997404432E+01 -7.6340747613E+01 -7.6338456708E+01
 -7.6415158132E+01 -7.6574332108E+01 -7.6815686181E+01 -7.7161476242E+01 -7.7455472370E+01
 -7.7571494485E+01 -7.8006088767E+01 -7.8447346170E+01 -7.8597468637E+01 -7.8221852953E+01
 -7.9364024693E+01 -7.9329831729E+01 -7.9072719159E+01 -7.8296877630E+01 -7.7246254322E+01
 -7.6315654900E+01 -7.5413594295E+01 -7.5721823275E+01 -7.5692733665E+01 -7.5573436046E+01
 -7.5562074136E+01 -7.5879817679E+01 -7.6184239859E+01 -7.6333333857E+01 -7.6574332108E+01
 -7.6926005406E+01 -7.7373526238E+01 -7.7869199928E+01 -7.8343475597E+01 -7.8594129766E+01
 -7.9012244161E+01 -7.9578487450E+01 -7.9777177087E+01 -7.9536914849E+01 -8.1978711691E+01
 -8.1991998936E+01 -8.1336225160E+01 -8.0090260834E+01 -7.8383410444E+01 -7.6934028445E+01
 -7.5691768561E+01 -7.5760125244E+01 -7.5701039412E+01 -7.5528860898E+01 -7.5537293376E+01
 -7.5694581012E+01 -7.6151119233E+01 -7.6419652204E+01 -7.6815686181E+01 -7.7373526238E+01
 -7.8021598677E+01 -7.8739558317E+01 -7.9301892446E+01 -7.9912501288E+01 -8.0520166075E+01
 -8.1299244116E+01 -8.1391840516E+01 -8.1455746996E+01 -8.6003508740E+01 -8.5744490333E+01
 -8.4679141873E+01 -8.2979495646E+01 -8.0759653305E+01 -7.8207356891E+01 -7.6616728460E+01
 -7.5981728798E+01 -7.6034380602E+01 -7.5756064982E+01 -7.5668099133E+01 -7.5783180515E+01
 -7.6159663818E+01 -7.6604430691E+01 -7.7161476242E+01 -7.7869199928E+01 -7.8739558317E+01
 -7.9618622143E+01 -8.0548076113E+01 -8.1574157499E+01 -8.2471236606E+01 -8.3291526552E+01
 -8.4132103186E+01 -8.5337849956E+01 -9.0433103694E+01 -8.9889701208E+01 -8.8631478108E+01
 -8.6741023929E+01 -8.3952749755E+01 -8.0952552316E+01 -7.8159116296E+01 -7.6495768716E+01
 -7.6311950459E+01 -7.6241921903E+01 -7.6024495594E+01 -7.6038548098E+01 -7.6196059950E+01
 -7.6697119701E+01 -7.7455472370E+01 -7.8343475597E+01 -7.9301892446E+01 -8.0548076113E+01
 -8.1984521814E+01 -8.3374545022E+01 -8.4673438984E+01 -8.6367099614E+01 -8.8294451975E+01
 -8.9918010936E+01 -9.4802160285E+01 -9.4047955615E+01 -9.2402530704E+01 -9.0194908144E+01
 -8.7589721088E+01 -8.4196141271E+01 -8.0633190517E+01 -7.8082234525E+01 -7.6683583869E+01
 -7.6623625544E+01 -7.6574809786E+01 -7.6447571990E+01 -7.6570286469E+01 -7.6948485513E+01
 -7.7571494485E+01 -7.8594129766E+01 -7.9912501288E+01 -8.1574157499E+01 -8.3374545022E+01
 -8.5252969517E+01 -8.7696906161E+01 -9.0306567792E+01 -9.2511840956E+01 -9.4201602176E+01
 -9.9194593848E+01 -9.8386382329E+01 -9.6361495939E+01 -9.3592504355E+01 -9.0812847881E+01
 -8.7824397419E+01 -8.3613832407E+01 -7.9904673220E+01 -7.7862814641E+01 -7.6896676958E+01
 -7.6913610152E+01 -7.7000216081E+01 -7.7020970698E+01 -7.7344075933E+01 -7.8006088767E+01
 -7.9012244161E+01 -8.0520166075E+01 -8.2471236606E+01 -8.4673438984E+01 -8.7696906161E+01
 -9.1054962339E+01 -9.4255657767E+01 -9.7046837003E+01 -9.8863280352E+01 -1.0316066576E+02
 -1.0236112068E+02 -1.0055427963E+02 -9.7543193089E+01 -9.3954759681E+01 -9.0567886852E+01
 -8.7309597116E+01 -8.2762688368E+01 -7.9177403734E+01 -7.7784494962E+01 -7.7057620292E+01
 -7.7162070903E+01 -7.7496221220E+01 -7.7782457519E+01 -7.8447346170E+01 -7.9578487450E+01
 -8.1299244116E+01 -8.3291526552E+01 -8.6367099614E+01 -9.0306567792E+01 -9.4255657767E+01
 -9.8144989262E+01 -1.0125498438E+02 -1.0281983770E+02 -1.0607704535E+02 -1.0518518171E+02
 -1.0347077621E+02 -1.0082994853E+02 -9.7484058514E+01 -9.3591938940E+01 -8.9785343209E+01
 -8.6308715676E+01 -8.1790155649E+01 -7.8681642308E+01 -7.7772475026E+01 -7.7092305557E+01
 -7.7374559582E+01 -7.7869799462E+01 -7.8597468637E+01 -7.9777177087E+01 -8.1391840516E+01
 -8.4132103186E+01 -8.8294451975E+01 -9.2511840956E+01 -9.7046837003E+01 -1.0125498438E+02
 -1.0433326753E+02 -1.0582414902E+02 -1.0815665023E+02 -1.0735489224E+02 -1.0555648367E+02
 -1.0313640167E+02 -9.9934195222E+01 -9.6347857748E+01 -9.2238258247E+01 -8.8444247866E+01
 -8.4970827600E+01 -8.1007850845E+01 -7.8611920831E+01 -7.7788131163E+01 -7.7156611727E+01
 -7.7376216832E+01 -7.8221852953E+01 -7.9536914849E+01 -8.1455746996E+01 -8.5337849956E+01
 -8.9918010936E+01 -9.4201602176E+01 -9.8863280352E+01 -1.0281983770E+02 -1.0582414902E+02
 -1.0755204648E+02 -1.0871968625E+02 -1.0854140516E+02 -1.0726773064E+02 -1.0500251378E+02
 -1.0199376688E+02 -9.8933089566E+01 -9.5622420986E+01 -9.2041630424E+01 -8.8235522119E+01
 -8.5406713563E+01 -8.2130681505E+01 -8.0020724579E+01 -7.8498867144E+01 -7.7949951865E+01
 -7.8180563060E+01 -7.9329831729E+01 -8.1991998936E+01 -8.5744490333E+01 -8.9889701208E+01
 -9.4047955615E+01 -9.8386382329E+01 -1.0236112068E+02 -1.0518518171E+02 -1.0735489224E+02
 -1.0854140516E+02 -1.0884730424E+02 -1.0822479245E+02 -1.0629077209E+02 -1.0334855890E+02
 -1.0019109820E+02 -9.7288717496E+01 -9.4098209280E+01 -9.0450339093E+01 -8.7024004220E+01
 -8.4524793418E+01 -8.1799553231E+01 -7.9982237388E+01 -7.8933753883E+01 -7.8846567916E+01
 -8.0002319357E+01 -8.2355404588E+01 -8.5831788407E+01 -8.9602724021E+01 -9.3506834285E+01
 -9.7693066969E+01 -1.0183531429E+02 -1.0473329841E+02 -1.0693170861E+02 -1.0726773064E+02
 -1.0822479245E+02 -1.0797044358E+02 -1.0658234084E+02 -1.0420789171E+02 -1.0127551478E+02
 -9.8316485378E+01 -9.5508860375E+01 -9.2266148788E+01 -8.8812839736E+01 -8.5917351244E+01
 -8.3340863855E+01 -8.1111701921E+01 -7.9733708398E+01 -7.9220219272E+01 -8.0013057362E+01
 -8.2059877941E+01 -8.5142284722E+01 -8.8645184540E+01 -9.2027436566E+01 -9.5857029077E+01
 -1.0016956370E+02 -1.0327070715E+02 -1.0573778680E+02 -1.0500251378E+02 -1.0629077209E+02
 -1.0658234084E+02 -1.0587099070E+02 -1.0408375394E+02 -1.0160901195E+02 -9.8992682322E+01
 -9.6512510397E+01 -9.3606093804E+01 -9.0049362611E+01 -8.7000403032E+01 -8.4457684547E+01
 -8.1912616667E+01 -8.0168322178E+01 -7.9182872659E+01 -7.9472096882E+01 -8.1113973328E+01
 -8.3747396999E+01 -8.7075476451E+01 -9.0087177154E+01 -9.3531712530E+01 -9.7595737659E+01
 -1.0090199990E+02 -1.0348937640E+02 -1.0199376688E+02 -1.0334855890E+02 -1.0420789171E+02
 -1.0408375394E+02 -1.0298603062E+02 -1.0127551478E+02 -9.9173595517E+01 -9.7012639164E+01
 -9.4314685108E+01 -9.0842931840E+01 -8.7713595642E+01 -8.5007092126E+01 -8.2267492356E+01
 -8.0139237443E+01 -7.8781628093E+01 -7.8600714897E+01 -7.9653068569E+01 -8.1820931754E+01
 -8.4765533334E+01 -8.7799987103E+01 -9.0801754055E+01 -9.4375203974E+01 -9.7871338313E+01
 -1.0041273100E+02 -9.8933089566E+01 -1.0019109820E+02 -1.0127551478E+02 -1.0160901195E+02
 -1.0127551478E+02 -1.0019109820E+02 -9.8933089566E+01 -9.6953758051E+01 -9.4393979641E+01
 -9.0949454013E+01 -8.8003828838E+01 -8.4949059135E+01 -8.1982991295E+01 -7.9485164785E+01
 -7.7808023036E+01 -7.7256241690E+01 -7.7808023036E+01 -7.9485164785E+01 -8.1982991295E+01
 -8.4949059135E+01 -8.8003828838E+01 -9.0949454013E+01 -9.4393979641E+01 -9.6953758051E+01
 -9.5622420986E+01 -9.7288717496E+01 -9.8316485378E+01 -9.8992682322E+01 -9.9173595517E+01
 -9.8933089566E+01 -9.7939051593E+01 -9.6347857748E+01 -9.3591938940E+01 -9.0567886852E+01
 -8.7824397419E+01 -8.4196141271E+01 -8.0952552316E+01 -7.8207356891E+01 -7.6934028445E+01
 -7.6315654900E+01 -7.6435795767E+01 -7.7282879544E+01 -7.9005356826E+01 -8.1644395648E+01
 -8.4656223082E+01 -8.7720751062E+01 -9.0430101147E+01 -9.3440982974E+01 -9.2041630424E+01
 -9.4098209280E+01 -9.5508860375E+01 -9.6512510397E+01 -9.7012639164E+01 -9.6953758051E+01
 -9.6347857748E+01 -9.4600248759E+01 -9.2157764646E+01 -8.9743346547E+01 -8.6295672145E+01
 -8.2553114498E+01 -7.9277209171E+01 -7.7370777153E+01 -7.6058069526E+01 -7.5488287522E+01
 -7.5367883444E+01 -7.5754890284E+01 -7.6875093715E+01 -7.8383122863E+01 -8.0890137361E+01
 -8.4084764331E+01 -8.7049272406E+01 -8.9454185689E+01 -8.8235522119E+01 -9.0450339093E+01
 -9.2266148788E+01 -9.3606093804E+01 -9.4314685108E+01 -9.4393979641E+01 -9.3591938940E+01
 -9.2157764646E+01 -9.0489781640E+01 -8.7656030580E+01 -8.3805673703E+01 -8.0335070761E+01
 -7.8189205130E+01 -7.6968674716E+01 -7.6232880143E+01 -7.5750747160E+01 -7.5551224023E+01
 -7.5634890771E+01 -7.5807083907E+01 -7.6613014270E+01 -7.8093026146E+01 -8.0214900648E+01
 -8.3338933647E+01 -8.6147007082E+01 -8.5406713563E+01 -8.7024004220E+01 -8.8812839736E+01
 -9.0049362611E+01 -9.0842931840E+01 -9.0949454013E+01 -9.0567886852E+01 -8.9743346547E+01
 -8.7656030580E+01 -8.4250001892E+01 -8.0798301347E+01 -7.8914417676E+01 -7.7826525743E+01
 -7.6812800617E+01 -7.5930432040E+01 -7.5418044498E+01 -7.5255492657E+01 -7.5432097003E+01
 -7.5779198241E+01 -7.5984175679E+01 -7.6557603633E+01 -7.7868439542E+01 -7.9838646435E+01
 -8.2631843616E+01 -8.2130681505E+01 -8.4524793418E+01 -8.5917351244E+01 -8.7000403032E+01
 -8.7713595642E+01 -8.8003828838E+01 -8.7824397419E+01 -8.6295672145E+01 -8.3805673703E+01
 -8.0798301347E+01 -7.9204124451E+01 -7.8351937320E+01 -7.7202234841E+01 -7.6186594129E+01
 -7.5482657747E+01 -7.5060902276E+01 -7.4923370033E+01 -7.5044622233E+01 -7.5422865146E+01
 -7.5980183656E+01 -7.6149091539E+01 -7.6654396774E+01 -7.7960875091E+01 -7.9823594707E+01
 -8.0020724579E+01 -8.1799553231E+01 -8.3340863855E+01 -8.4457684547E+01 -8.5007092126E+01
 -8.4949059135E+01 -8.4196141271E+01 -8.2553114498E+01 -8.0335070761E+01 -7.8914417676E+01
 -7.8351937320E+01 -7.7353965816E+01 -7.6357524830E+01 -7.5585884917E+01 -7.5176120136E+01
 -7.4860223939E+01 -7.4750908812E+01 -7.4855705496E+01 -7.5149867349E+01 -7.5670243810E+01
 -7.6247239725E+01 -7.6366907789E+01 -7.6909496273E+01 -7.8193562723E+01 -7.8498867144E+01
 -7.9982237388E+01 -8.1111701921E+01 -8.1912616667E+01 -8.2267492356E+01 -8.1982991295E+01
 -8.0952552316E+01 -7.9277209171E+01 -7.8189205130E+01 -7.7826525743E+01 -7.7202234841E+01
 -7.6357524830E+01 -7.5740720798E+01 -7.5468751470E+01 -7.5211936231E+01 -7.4987437364E+01
 -7.4857382243E+01 -7.4791145864E+01 -7.5114304716E+01 -7.5552754542E+01 -7.6166755873E+01
 -7.6589637298E+01 -7.6464792766E+01 -7.7301850181E+01 -7.7949951865E+01 -7.8933753883E+01
 -7.9733708398E+01 -8.0168322178E+01 -8.0139237443E+01 -7.9485164785E+01 -7.8207356891E+01
 -7.7370777153E+01 -7.6968674716E+01 -7.6812800617E+01 -7.6186594129E+01 -7.5585884917E+01
 -7.5468751470E+01 -7.5320018168E+01 -7.5155092560E+01 -7.5044407765E+01 -7.5056193737E+01
 -7.5116005834E+01 -7.5236946081E+01 -7.5718640380E+01 -7.6292063460E+01 -7.6904236942E+01
 -7.6946257975E+01 -7.7045127553E+01 -7.8180563060E+01 -7.8846567916E+01 -7.9220219272E+01
 -7.9182872659E+01 -7.8781628093E+01 -7.7808023036E+01 -7.6934028445E+01 -7.6058069526E+01
 -7.6232880143E+01 -7.5930432040E+01 -7.5482657747E+01 -7.5176120136E+01 -7.5211936231E+01
 -7.5155092560E+01 -7.5081793373E+01 -7.5112228279E+01 -7.5264129853E+01 -7.5530303681E+01
 -7.5798017775E+01 -7.6163290271E+01 -7.6781200761E+01 -7.7421303777E+01 -7.7584757358E+01
 -7.7524389594E+01 -7.9329831729E+01 -8.0002319357E+01 -8.0013057362E+01 -7.9472096882E+01
 -7.8600714897E+01 -7.7256241690E+01 -7.6315654900E+01 -7.5488287522E+01 -7.5750747160E+01
 -7.5418044498E+01 -7.5060902276E+01 -7.4860223939E+01 -7.4987437364E+01 -7.5044407765E+01
 -7.5112228279E+01 -7.5294788976E+01 -7.5611684398E+01 -7.6070957081E+01 -7.6559421734E+01
 -7.6915033437E+01 -7.7638929932E+01 -7.8385238294E+01 -7.8590669038E+01 -7.8751427151E+01
 -8.1991998936E+01 -8.2355404588E+01 -8.2059877941E+01 -8.1113973328E+01 -7.9653068569E+01
 -7.7808023036E+01 -7.6435795767E+01 -7.5367883444E+01 -7.5551224023E+01 -7.5255492657E+01
 -7.4923370033E+01 -7.4750908812E+01 -7.4857382243E+01 -7.5056193737E+01 -7.5264129853E+01
 -7.5611684398E+01 -7.6138709356E+01 -7.6868143014E+01 -7.7435858331E+01 -7.8093849897E+01
 -7.9000136489E+01 -7.9905004670E+01 -8.0204918155E+01 -8.0944446415E+01 -8.5744490333E+01
 -8.5831788407E+01 -8.5142284722E+01 -8.3747396999E+01 -8.1820931754E+01 -7.9485164785E+01
 -7.7282879544E+01 -7.5754890284E+01 -7.5634890771E+01 -7.5432097003E+01 -7.5044622233E+01
 -7.4855705496E+01 -7.4791145864E+01 -7.5116005834E+01 -7.5530303681E+01 -7.6070957081E+01
 -7.6868143014E+01 -7.7632837101E+01 -7.8573628610E+01 -7.9637251581E+01 -8.0730090892E+01
 -8.1666037382E+01 -8.3031143351E+01 -8.4791396181E+01 -8.9889701208E+01 -8.9602724021E+01
 -8.8645184540E+01 -8.7075476451E+01 -8.4765533334E+01 -8.1982991295E+01 -7.9005356826E+01
 -7.6875093715E+01 -7.5807083907E+01 -7.5779198241E+01 -7.5422865146E+01 -7.5149867349E+01
 -7.5114304716E+01 -7.5236946081E+01 -7.5798017775E+01 -7.6559421734E+01 -7.7435858331E+01
 -7.8573628610E+01 -7.9951544146E+01 -8.1298873672E+01 -8.2804665532E+01 -8.4913662227E+01
 -8.7431843666E+01 -8.9337603035E+01 -9.4047955615E+01 -9.3506834285E+01 -9.2027436566E+01
 -9.0087177154E+01 -8.7799987103E+01 -8.4949059135E+01 -8.1644395648E+01 -7.8383122863E+01
 -7.6613014270E+01 -7.5984175679E+01 -7.5980183656E+01 -7.5670243810E+01 -7.5552754542E+01
 -7.5718640380E+01 -7.6163290271E+01 -7.6915033437E+01 -7.8093849897E+01 -7.9637251581E+01
 -8.1298873672E+01 -8.3232294491E+01 -8.5970276006E+01 -8.8864204734E+01 -9.1560823241E+01
 -9.3474556906E+01 -9.8386382329E+01 -9.7693066969E+01 -9.5857029077E+01 -9.3531712530E+01
 -9.0801754055E+01 -8.8003828838E+01 -8.4656223082E+01 -8.0890137361E+01 -7.8093026146E+01
 -7.6557603633E+01 -7.6149091539E+01 -7.6247239725E+01 -7.6166755873E+01 -7.6292063460E+01
 -7.6781200761E+01 -7.7638929932E+01 -7.9000136489E+01 -8.0730090892E+01 -8.2804665532E+01
 -8.5970276006E+01 -8.9425213062E+01 -9.3089129328E+01 -9.6067957992E+01 -9.7933163482E+01
 -1.0236112068E+02 -1.0183531429E+02 -1.0016956370E+02 -9.7595737659E+01 -9.4375203974E+01
 -9.0949454013E+01 -8.7720751062E+01 -8.4084764331E+01 -8.0214900648E+01 -7.7868439542E+01
 -7.6654396774E+01 -7.6366907789E+01 -7.6589637298E+01 -7.6904236942E+01 -7.7421303777E+01
 -7.8385238294E+01 -7.9905004670E+01 -8.1666037382E+01 -8.4913662227E+01 -8.8864204734E+01
 -9.3089129328E+01 -9.7013633514E+01 -9.9822126136E+01 -1.0161066920E+02 -1.0518518171E+02
 -1.0473329841E+02 -1.0327070715E+02 -1.0090199990E+02 -9.7871338313E+01 -9.4393979641E+01
 -9.0430101147E+01 -8.7049272406E+01 -8.3338933647E+01 -7.9838646435E+01 -7.7960875091E+01
 -7.6909496273E+01 -7.6464792766E+01 -7.6946257975E+01 -7.7584757358E+01 -7.8590669038E+01
 -8.0204918155E+01 -8.3031143351E+01 -8.7431843666E+01 -9.1560823241E+01 -9.6067957992E+01
 -9.9822126136E+01 -1.0289780643E+02 -1.0456805110E+02 -1.0735489224E+02 -1.0693170861E+02
 -1.0573778680E+02 -1.0348937640E+02 -1.0041273100E+02 -9.6953758051E+01 -9.3440982974E+01
 -8.9454185689E+01 -8.6147007082E+01 -8.2631843616E+01 -7.9823594707E+01 -7.8193562723E+01
 -7.7301850181E+01 -7.7045127553E+01 -7.7524389594E+01 -7.8751427151E+01 -8.0944446415E+01
 -8.4791396181E+01 -8.9337603035E+01 -9.3474556906E+01 -9.7933163482E+01 -1.0161066920E+02
 -1.0456805110E+02 -1.0657883137E+02 -1.0691108072E+02 -1.0726773064E+02 -1.0661786448E+02
 -1.0471633597E+02 -1.0202202786E+02 -9.9173595517E+01 -9.6381304949E+01 -9.3185327809E+01
 -8.9552285134E+01 -8.6312478608E+01 -8.3595505173E+01 -8.1067740931E+01 -7.9265457320E+01
 -7.8111314386E+01 -7.8011401716E+01 -7.9072719159E+01 -8.1336225160E+01 -8.4679141873E+01
 -8.8631478108E+01 -9.2402530704E+01 -9.6361495939E+01 -1.0055427963E+02 -1.0347077621E+02
 -1.0555648367E+02 -1.0726773064E+02 -1.0822479245E+02 -1.0797044358E+02 -1.0658234084E+02
 -1.0420789171E+02 -1.0127551478E+02 -9.8316485378E+01 -9.5508860375E+01 -9.2266148788E+01
 -8.8812839736E+01 -8.5917351244E+01 -8.3340863855E+01 -8.1111701921E+01 -7.9733708398E+01
 -7.9220219272E+01 -8.0013057362E+01 -8.2059877941E+01 -8.5142284722E+01 -8.8645184540E+01
 -9.2027436566E+01 -9.5857029077E+01 -1.0016956370E+02 -1.0327070715E+02 -1.0573778680E+02
 -1.0661786448E+02 -1.0797044358E+02 -1.0823667590E+02 -1.0748590271E+02 -1.0572662474E+02
 -1.0298603062E+02 -1.0004328126E+02 -9.7461558910E+01 -9.4478860080E+01 -9.0999873403E+01
 -8.7897160437E+01 -8.5312104092E+01 -8.2687293247E+01 -8.0722467542E+01 -7.9823853043E+01
 -8.0168175950E+01 -8.1894425912E+01 -8.4781852371E+01 -8.7812991640E+01 -9.1018785549E+01
 -9.4662073928E+01 -9.8822434017E+01 -1.0211549675E+02 -1.0459353375E+02 -1.0471633597E+02
 -1.0658234084E+02 -1.0748590271E+02 -1.0730550619E+02 -1.0623108185E+02 -1.0408375394E+02
 -1.0140703218E+02 -9.8902254970E+01 -9.6099377500E+01 -9.2856129744E+01 -8.9459069702E+01
 -8.6521662537E+01 -8.3976692142E+01 -8.1511113764E+01 -8.0169297031E+01 -8.0009084836E+01
 -8.1190231194E+01 -8.3591683750E+01 -8.6583672928E+01 -8.9388500103E+01 -9.2805378904E+01
 -9.6735946674E+01 -1.0007100607E+02 -1.0254770752E+02 -1.0202202786E+02 -1.0420789171E+02
 -1.0572662474E+02 -1.0623108185E+02 -1.0572662474E+02 -1.0420789171E+02 -1.0202202786E+02
 -9.9944548159E+01 -9.7284720600E+01 -9.4059410136E+01 -9.0423189441E+01 -8.7342254687E+01
 -8.4698687673E+01 -8.2028243965E+01 -8.0133870878E+01 -7.9466174651E+01 -8.0133870878E+01
 -8.2028243965E+01 -8.4698687673E+01 -8.7342254687E+01 -9.0423189441E+01 -9.4059410136E+01
 -9.7284720600E+01 -9.9944548159E+01 -9.9173595517E+01 -1.0127551478E+02 -1.0298603062E+02
 -1.0408375394E+02 -1.0420789171E+02 -1.0334855890E+02 -1.0199376688E+02 -1.0041273100E+02
 -9.7871338313E+01 -9.4375203974E+01 -9.0801754055E+01 -8.7799987103E+01 -8.4765533334E+01
 -8.1820931754E+01 -7.9653068569E+01 -7.8600714897E+01 -7.8781628093E+01 -8.0139237443E+01
 -8.2267492356E+01 -8.5007092126E+01 -8.7713595642E+01 -9.0842931840E+01 -9.4314685108E+01
 -9.7012639164E+01 -9.6381304949E+01 -9.8316485378E+01 -1.0004328126E+02 -1.0140703218E+02
 -1.0202202786E+02 -1.0199376688E+02 -1.0152332238E+02 -9.9934195222E+01 -9.7484058514E+01
 -9.3954759681E+01 -9.0812847881E+01 -8.7589721088E+01 -8.3952749755E+01 -8.0759653305E+01
 -7.8383410444E+01 -7.7246254322E+01 -7.7122301780E+01 -7.7777534513E+01 -7.9632396814E+01
 -8.1949904789E+01 -8.5008378932E+01 -8.7650951596E+01 -9.0652426093E+01 -9.3905042185E+01
 -9.3185327809E+01 -9.5508860375E+01 -9.7461558910E+01 -9.8902254970E+01 -9.9944548159E+01
 -1.0041273100E+02 -9.9934195222E+01 -9.8498236947E+01 -9.6021350276E+01 -9.3087657300E+01
 -8.9968839764E+01 -8.6288009801E+01 -8.2396436145E+01 -7.9096344718E+01 -7.7287997522E+01
 -7.6206768709E+01 -7.5845707578E+01 -7.6201119436E+01 -7.7274471438E+01 -7.8952358950E+01
 -8.1310303822E+01 -8.4688276244E+01 -8.7206116484E+01 -9.0182878460E+01 -8.9552285134E+01
 -9.2266148788E+01 -9.4478860080E+01 -9.6099377500E+01 -9.7284720600E+01 -9.7871338313E+01
 -9.7484058514E+01 -9.6021350276E+01 -9.3969528702E+01 -9.1532074830E+01 -8.7892110699E+01
 -8.3939784212E+01 -8.0171695169E+01 -7.7942196910E+01 -7.6675473093E+01 -7.5953818761E+01
 -7.5569604874E+01 -7.5364520202E+01 -7.5609949160E+01 -7.6824269761E+01 -7.8256197019E+01
 -8.0779325836E+01 -8.4263357376E+01 -8.6735749975E+01 -8.6312478608E+01 -8.8812839736E+01
 -9.0999873403E+01 -9.2856129744E+01 -9.4059410136E+01 -9.4375203974E+01 -9.3954759681E+01
 -9.3087657300E+01 -9.1532074830E+01 -8.8547894223E+01 -8.4769198781E+01 -8.0916599743E+01
 -7.8737126059E+01 -7.7494169155E+01 -7.6421553167E+01 -7.5669922108E+01 -7.5342556767E+01
 -7.5338384396E+01 -7.5420086815E+01 -7.5546340010E+01 -7.6583563965E+01 -7.7881307600E+01
 -8.0566218125E+01 -8.3929996689E+01 -8.3595505173E+01 -8.5917351244E+01 -8.7897160437E+01
 -8.9459069702E+01 -9.0423189441E+01 -9.0801754055E+01 -9.0812847881E+01 -8.9968839764E+01
 -8.7892110699E+01 -8.4769198781E+01 -8.1255395234E+01 -7.9246579294E+01 -7.8088317607E+01
 -7.6714467208E+01 -7.5701965522E+01 -7.5063544127E+01 -7.4767598293E+01 -7.4798637609E+01
 -7.5124530923E+01 -7.5462366184E+01 -7.5647432253E+01 -7.6639881215E+01 -7.8075839490E+01
 -8.0712065862E+01 -8.1067740931E+01 -8.3340863855E+01 -8.5312104092E+01 -8.6521662537E+01
 -8.7342254687E+01 -8.7799987103E+01 -8.7589721088E+01 -8.6288009801E+01 -8.3939784212E+01
 -8.0916599743E+01 -7.9246579294E+01 -7.8228852396E+01 -7.6900761591E+01 -7.5797374372E+01
 -7.5012174255E+01 -7.4546998838E+01 -7.4331741576E+01 -7.4353363813E+01 -7.4638142707E+01
 -7.5167356209E+01 -7.5604041551E+01 -7.5714463136E+01 -7.6951843882E+01 -7.8634732388E+01
 -7.9265457320E+01 -8.1111701921E+01 -8.2687293247E+01 -8.3976692142E+01 -8.4698687673E+01
 -8.4765533334E+01 -8.3952749755E+01 -8.2396436145E+01 -8.0171695169E+01 -7.8737126059E+01
 -7.8088317607E+01 -7.6900761591E+01 -7.5898213153E+01 -7.5264573411E+01 -7.4811759128E+01
 -7.4433179891E+01 -7.4179177102E+01 -7.4119374753E+01 -7.4379402133E+01 -7.4849729648E+01
 -7.5526472509E+01 -7.5856128755E+01 -7.6067662079E+01 -7.7496820755E+01 -7.8111314386E+01
 -7.9733708398E+01 -8.0722467542E+01 -8.1511113764E+01 -8.2028243965E+01 -8.1820931754E+01
 -8.0759653305E+01 -7.9096344718E+01 -7.7942196910E+01 -7.7494169155E+01 -7.6714467208E+01
 -7.5797374372E+01 -7.5264573411E+01 -7.4900236775E+01 -7.4560110609E+01 -7.4279513834E+01
 -7.4159114630E+01 -7.4188136000E+01 -7.4356990265E+01 -7.4816633393E+01 -7.5463175312E+01
 -7.6040556295E+01 -7.6031729002E+01 -7.6876000328E+01 -7.8011401716E+01 -7.9220219272E+01
 -7.9823853043E+01 -8.0169297031E+01 -8.0133870878E+01 -7.9653068569E+01 -7.8383410444E+01
 -7.7287997522E+01 -7.6675473093E+01 -7.6421553167E+01 -7.5701965522E+01 -7.5012174255E+01
 -7.4811759128E+01 -7.4560110609E+01 -7.4252919847E+01 -7.4138321018E+01 -7.4186546990E+01
 -7.4431098580E+01 -7.4671940856E+01 -7.5083304395E+01 -7.5758224281E+01 -7.6492473713E+01
 -7.6562297550E+01 -7.7060520479E+01 -7.9072719159E+01 -8.0013057362E+01 -8.0168175950E+01
 -8.0009084836E+01 -7.9466174651E+01 -7.8600714897E+01 -7.7246254322E+01 -7.6206768709E+01
 -7.5953818761E+01 -7.5669922108E+01 -7.5063544127E+01 -7.4546998838E+01 -7.4433179891E+01
 -7.4279513834E+01 -7.4138321018E+01 -7.4184655775E+01 -7.4403880688E+01 -7.4862037165E+01
 -7.5252841057E+01 -7.5641797603E+01 -7.6433904553E+01 -7.7248325884E+01 -7.7417384869E+01
 -7.8050849137E+01 -8.1336225160E+01 -8.2059877941E+01 -8.1894425912E+01 -8.1190231194E+01
 -8.0133870878E+01 -7.8781628093E+01 -7.7122301780E+01 -7.5845707578E+01 -7.5569604874E+01
 -7.5342556767E+01 -7.4767598293E+01 -7.4331741576E+01 -7.4179177102E+01 -7.4159114630E+01
 -7.4186546990E+01 -7.4403880688E+01 -7.4893744255E+01 -7.5461230481E+01 -7.5965029569E+01
 -7.6577646608E+01 -7.7574438540E+01 -7.8439761814E+01 -7.8935947302E+01 -7.9983709416E+01
 -8.4679141873E+01 -8.5142284722E+01 -8.4781852371E+01 -8.3591683750E+01 -8.2028243965E+01
 -8.0139237443E+01 -7.7777534513E+01 -7.6201119436E+01 -7.5364520202E+01 -7.5338384396E+01
 -7.4798637609E+01 -7.4353363813E+01 -7.4119374753E+01 -7.4188136000E+01 -7.4431098580E+01
 -7.4862037165E+01 -7.5461230481E+01 -7.6113592271E+01 -7.6922374079E+01 -7.7898309034E+01
 -7.9137571246E+01 -8.0006106661E+01 -8.1480678858E+01 -8.3406149752E+01 -8.8631478108E+01
 -8.8645184540E+01 -8.7812991640E+01 -8.6583672928E+01 -8.4698687673E+01 -8.2267492356E+01
 -7.9632396814E+01 -7.7274471438E+01 -7.5609949160E+01 -7.5420086815E+01 -7.5124530923E+01
 -7.4638142707E+01 -7.4379402133E+01 -7.4356990265E+01 -7.4671940856E+01 -7.5252841057E+01
 -7.5965029569E+01 -7.6922374079E+01 -7.8131469469E+01 -7.9440545769E+01 -8.0864220898E+01
 -8.2867212092E+01 -8.5706315095E+01 -8.7738766343E+01 -9.2402530704E+01 -9.2027436566E+01
 -9.1018785549E+01 -8.9388500103E+01 -8.7342254687E+01 -8.5007092126E+01 -8.1949904789E+01
 -7.8952358950E+01 -7.6824269761E+01 -7.5546340010E+01 -7.5462366184E+01 -7.5167356209E+01
 -7.4849729648E+01 -7.4816633393E+01 -7.5083304395E+01 -7.5641797603E+01 -7.6577646608E+01