Si
   1.0000000000000000
   5.46872800   0.00000000   0.00000000
   0.00000000   5.46872800   0.00000000
   0.00000000   0.00000000   5.46872800
 Si
   2
Direct
    0.000000    0.000000    0.000000
    0.250000    0.250000    0.250000

   24   24   24
 -2.8167856957E+01 -6.5660952952E+00  3.5946105634E+01  5.9377990877E+01  5.4006692927E+01
  3.7261594028E+01  2.3222562399E+01  1.4302157823E+01  8.6788756381E+00  5.2432741791E+00
  3.2257585909E+00  2.0911841532E+00  1.5278686220E+00  1.4081679615E+00  1.7427272604E+00
  2.7560507170E+00  4.9960926183E+00  9.4301009141E+00  1.7768378801E+01  3.2585392981E+01
  5.2086885928E+01  6.0313878876E+01  3.7744365540E+01 -4.9326717371E+00 -6.5660965137E+00
  1.2797734413E+01  4.8262679479E+01  6.5304696627E+01  5.7458490957E+01  4.0531962191E+01
  2.6312251331E+01  1.6896772600E+01  1.0678483484E+01  6.6952913272E+00  4.2214955494E+00
  2.7671009789E+00  1.9833549158E+00  1.7106579521E+00  1.9531859613E+00  2.8740731073E+00
  4.9693374767E+00  9.0897956192E+00  1.6760005617E+01  3.0360961521E+01  4.8657046458E+01
  5.9226333017E+01  4.4443459403E+01  1.1447133036E+01  3.5946108071E+01  4.8262679479E+01
  6.5855196041E+01  6.9117624028E+01  5.6970596593E+01  4.1343022718E+01  2.8314121444E+01
  1.9101705785E+01  1.2623977856E+01  8.2098934202E+00  5.3266959947E+00  3.5062295493E+00
  2.4625149023E+00  1.9991764732E+00  2.0369407501E+00  2.7944096541E+00  4.5596735326E+00
  8.0088769310E+00  1.4308861155E+01  2.5294478128E+01  4.0802115855E+01  5.4937326469E+01
  5.5368679366E+01  4.2498930135E+01  5.9377990877E+01  6.5304696627E+01  6.9117614279E+01
  6.3902463387E+01  5.2311906341E+01  3.9667677135E+01  2.9025881021E+01  2.0666215471E+01
  1.4318401309E+01  9.6616820872E+00  6.4063589506E+00  4.2510613137E+00  2.9128771257E+00
  2.2270896101E+00  2.0726444318E+00  2.5599663739E+00  3.8801331484E+00  6.4991448373E+00
  1.1183487734E+01  1.8956854834E+01  3.0639455051E+01  4.4053333033E+01  5.3728747751E+01
  5.6876162596E+01  5.4006692927E+01  5.7458490957E+01  5.6970596593E+01  5.2311906341E+01
  4.4650747242E+01  3.6191858730E+01  2.8314121444E+01  2.1351420055E+01  1.5479390147E+01
  1.0827957674E+01  7.3224988678E+00  4.8806810058E+00  3.2842823597E+00  2.3776739141E+00
  2.0141642268E+00  2.2182105283E+00  3.0861072619E+00  4.9033902034E+00  8.0715288970E+00
  1.3170250065E+01  2.0720729243E+01  3.0391964279E+01  4.0150914139E+01  4.8225820292E+01
  3.7261598903E+01  4.0531962191E+01  4.1343027592E+01  3.9667677135E+01  3.6191858730E+01
  3.1578318789E+01  2.6312253768E+01  2.0881726194E+01  1.5844364094E+01  1.1433085406E+01
  7.8953303338E+00  5.2715753764E+00  3.4983259297E+00  2.4102326290E+00  1.8737666783E+00
  1.8307779516E+00  2.3242632487E+00  3.4652202309E+00  5.4486860363E+00  8.5951900029E+00
  1.3082003946E+01  1.8906610918E+01  2.5659333874E+01  3.2045982518E+01  2.3222562399E+01
  2.6312253768E+01  2.8314121444E+01  2.9025881021E+01  2.8314121444E+01  2.6312251331E+01
  2.3222562399E+01  1.9317147050E+01  1.5224711054E+01  1.1294135971E+01  7.9198186379E+00
  5.3057506716E+00  3.4610475560E+00  2.2993725132E+00  1.6505757896E+00  1.4458339915E+00
  1.6505753327E+00  2.2993720562E+00  3.4610445096E+00  5.3057464066E+00  7.9198192472E+00
  1.1294137190E+01  1.5224709835E+01  1.9317154362E+01  1.4302160260E+01  1.6896767726E+01
  1.9101705785E+01  2.0666215471E+01  2.1351422492E+01  2.0881728631E+01  1.9317147050E+01
  1.6765266167E+01  1.3638217217E+01  1.0361892703E+01  7.3638478614E+00  4.9515165570E+00
  3.1964910707E+00  2.0590133992E+00  1.3872008565E+00  1.0977740466E+00  1.1110799505E+00
  1.4378197870E+00  2.0687360334E+00  3.1043498054E+00  4.6059625933E+00  6.5527605265E+00
  8.9297394010E+00  1.1556260503E+01  8.6788756381E+00  1.0678483484E+01  1.2623979074E+01
  1.4318400090E+01  1.5479390147E+01  1.5844364094E+01  1.5224711054E+01  1.3638217217E+01
  1.1361879716E+01  8.7861716005E+00  6.3073260848E+00  4.2599312563E+00  2.7242680763E+00
  1.6999644254E+00  1.0914050587E+00  7.9791524484E-01  7.3247519964E-01  8.5720830959E-01
  1.1819225084E+00  1.7472856115E+00  2.5702528995E+00  3.7001259570E+00  5.1241380193E+00
  6.7901908168E+00  5.2432741791E+00  6.6952925458E+00  8.2098934202E+00  9.6616808687E+00
  1.0827957674E+01  1.1433086625E+01  1.1294137190E+01  1.0361895140E+01  8.7861716005E+00
  6.8599573809E+00  4.9772901436E+00  3.3662690091E+00  2.1296323503E+00  1.3052437573E+00
  7.9299688364E-01  5.4651062904E-01  4.6327643450E-01  4.9598769866E-01  6.4343122473E-01
  9.4292765542E-01  1.4057535251E+00  2.0536821726E+00  2.9034356757E+00  3.9670400630E+00
  3.2257613327E+00  4.2214989005E+00  5.3266959947E+00  6.4063595599E+00  7.3224982585E+00
  7.8953303338E+00  7.9198186379E+00  7.3638478614E+00  6.3073260848E+00  4.9772907529E+00
  3.6360473547E+00  2.4342887991E+00  1.5371163200E+00  9.1463887223E-01  5.4501464877E-01
  3.5758696110E-01  2.7843005060E-01  2.7529302358E-01  3.4475119524E-01  5.0706857703E-01
  7.7093702948E-01  1.1571217184E+00  1.6743343249E+00  2.3737696284E+00  2.0911827823E+00
  2.7670988464E+00  3.5062292447E+00  4.2510613137E+00  4.8806797872E+00  5.2715765950E+00
  5.3057506716E+00  4.9515162523E+00  4.2599315609E+00  3.3662696184E+00  2.4342868189E+00
  1.6442100004E+00  1.0070990972E+00  6.0505004874E-01  3.6386577518E-01  2.2437358321E-01
  1.6153146379E-01  1.5286431730E-01  1.9888293240E-01  2.9423433865E-01  4.6603614396E-01
  7.1832825668E-01  1.0640987444E+00  1.5169294019E+00  1.5278690789E+00  1.9833547635E+00
  2.4625124651E+00  2.9128771257E+00  3.2842823597E+00  3.4983256251E+00  3.4610469467E+00
  3.1964907661E+00  2.7242680763E+00  2.1296323503E+00  1.5371147968E+00  1.0070997826E+00
  6.3823758183E-01  3.8028804759E-01  2.2224825164E-01  1.3325994996E-01  1.0109570774E-01
  9.5689834422E-02  1.3105000421E-01  2.1697665859E-01  3.5110338984E-01  5.4157098101E-01
  8.0219172636E-01  1.1339439821E+00  1.4081679615E+00  1.7106582567E+00  1.9991770825E+00
  2.2270896101E+00  2.3776739141E+00  2.4102326290E+00  2.2993731224E+00  2.0590135516E+00
  1.6999641208E+00  1.3052439096E+00  9.1463871991E-01  6.0504993450E-01  3.8028816183E-01
  2.2779084236E-01  1.3734260331E-01  9.5555411351E-02  7.3408715313E-02  9.1283080576E-02
  1.3364455988E-01  2.2481274301E-01  3.6408774461E-01  5.6289809616E-01  8.1732776419E-01
  1.1037911736E+00  1.7427274127E+00  1.9531861136E+00  2.0369404455E+00  2.0726448888E+00
  2.0141646838E+00  1.8737671353E+00  1.6505757896E+00  1.3872008565E+00  1.0914050587E+00
  7.9299688364E-01  5.4501464877E-01  3.6386623214E-01  2.2224828972E-01  1.3734260331E-01
  9.3800657148E-02  7.6871680207E-02  8.8769940345E-02  1.2261614649E-01  2.0217260386E-01
  3.4677233942E-01  5.5498788866E-01  8.2133204850E-01  1.1448841923E+00  1.4638967966E+00
  2.7560504123E+00  2.8740724980E+00  2.7944105680E+00  2.5599663739E+00  2.2182105283E+00
  1.8307777993E+00  1.4458344485E+00  1.0977738943E+00  7.9791554949E-01  5.4651070520E-01
  3.5758699918E-01  2.2437354513E-01  1.3325997852E-01  9.5555373271E-02  7.6871551686E-02
  8.9606638284E-02  1.3830825981E-01  2.2791037607E-01  3.9834662577E-01  6.6439337933E-01
  1.0416372204E+00  1.5196496984E+00  2.0227909131E+00  2.4741485527E+00  4.9960932276E+00
  4.9693374767E+00  4.5596726187E+00  3.8801337577E+00  3.0861075665E+00  2.3242627917E+00
  1.6505753327E+00  1.1110800267E+00  7.3247519964E-01  4.6327654874E-01  2.7843005060E-01
  1.6153150187E-01  1.0109577438E-01  7.3408715313E-02  8.8769826105E-02  1.3830828837E-01
  2.4568845558E-01  4.4364407822E-01  8.0808684444E-01  1.3611826427E+00  2.1012371711E+00
  3.0139827724E+00  3.8969481418E+00  4.6152261326E+00  9.4301027420E+00  9.0897980563E+00
  8.0088763217E+00  6.4991454466E+00  4.9033902034E+00  3.4652202309E+00  2.2993715992E+00
  1.4378200916E+00  8.5720830959E-01  4.9598766058E-01  2.7529296646E-01  1.5286438394E-01
  9.5689862983E-02  9.1283347137E-02  1.2261618457E-01  2.2791043319E-01  4.4364411630E-01
  8.6781943074E-01  1.5861293328E+00  2.6766410302E+00  4.1329307756E+00  5.8652948931E+00
  7.5718357673E+00  8.8889192650E+00  1.7768376364E+01  1.6760005617E+01  1.4308859937E+01
  1.1183487734E+01  8.0715288970E+00  5.4486854270E+00  3.4610448142E+00  2.0687355764E+00
  1.1819225084E+00  6.4343145321E-01  3.4475111908E-01  1.9888279911E-01  1.3104989949E-01
  1.3364455988E-01  2.0217258482E-01  3.9834658769E-01  8.0808676828E-01  1.5861291804E+00
  2.9126273197E+00  4.9366765546E+00  7.7452383305E+00  1.1077752754E+01  1.4415084779E+01
  1.6878544070E+01  3.2585395418E+01  3.0360961521E+01  2.5294480565E+01  1.8956854834E+01
  1.3170251283E+01  8.5951900029E+00  5.3057476252E+00  3.1043491962E+00  1.7472859161E+00
  9.4292757926E-01  5.0706815815E-01  2.9423454809E-01  2.1697656339E-01  2.2481259068E-01
  3.4677230134E-01  6.6439322701E-01  1.3611826427E+00  2.6766410302E+00  4.9366768592E+00
  8.5134839283E+00  1.3589613490E+01  1.9927593824E+01  2.6493447233E+01  3.1181134484E+01
  5.2086881053E+01  4.8657046458E+01  4.0802115855E+01  3.0639457488E+01  2.0720726806E+01
  1.3082003946E+01  7.9198198565E+00  4.6059619840E+00  2.5702532041E+00  1.4057535251E+00
  7.7093702948E-01  4.6603610588E-01  3.5110365641E-01  3.6408770653E-01  5.5498800290E-01
  1.0416373727E+00  2.1012367141E+00  4.1329310803E+00  7.7452371120E+00  1.3589612272E+01
  2.2333613565E+01  3.3350854765E+01  4.3746805172E+01  5.0580319059E+01  6.0313878876E+01
  5.9226333017E+01  5.4937326469E+01  4.4053333033E+01  3.0391964279E+01  1.8906608480E+01
  1.1294135971E+01  6.5527611358E+00  3.7001259570E+00  2.0536823249E+00  1.1571216422E+00
  7.1832825668E-01  5.4157056213E-01  5.6289832464E-01  8.2133204850E-01  1.5196493937E+00
  3.0139827724E+00  5.8652948931E+00  1.1077751536E+01  1.9927590168E+01  3.3350852328E+01
  4.8813841794E+01  5.9734236235E+01  6.1737441897E+01  3.7744370414E+01  4.4443454528E+01
  5.5368684240E+01  5.3728747751E+01  4.0150911702E+01  2.5659331437E+01  1.5224709835E+01
  8.9297394010E+00  5.1241380193E+00  2.9034356757E+00  1.6743340203E+00  1.0640992013E+00
  8.0219165020E-01  8.1732723106E-01  1.1448844208E+00  2.0227909131E+00  3.8969484464E+00
  7.5718357673E+00  1.4415083561E+01  2.6493452108E+01  4.3746800297E+01  5.9734236235E+01
  6.0232429919E+01  4.6674371198E+01 -4.9326735650E+00  1.1447131818E+01  4.2498925261E+01
  5.6876167470E+01  4.8225820292E+01  3.2045980081E+01  1.9317154362E+01  1.1556260503E+01
  6.7901908168E+00  3.9670403677E+00  2.3737696284E+00  1.5169294019E+00  1.1339439821E+00
  1.1037911736E+00  1.4638967966E+00  2.4741485527E+00  4.6152261326E+00  8.8889210928E+00
  1.6878542852E+01  3.1181136922E+01  5.0580323934E+01  6.1737441897E+01  4.6674371198E+01
  1.3380053025E+01 -6.5660965137E+00  1.2797729538E+01  4.8262679479E+01  6.5304696627E+01
  5.7458490957E+01  4.0531962191E+01  2.6312251331E+01  1.6896767726E+01  1.0678483484E+01
  6.6952925458E+00  4.2214961587E+00  2.7671000649E+00  1.9833546112E+00  1.7106582567E+00
  1.9531861136E+00  2.8740731073E+00  4.9693368674E+00  9.0897974470E+00  1.6760008054E+01
  3.0360961521E+01  4.8657046458E+01  5.9226347639E+01  4.4443459403E+01  1.1447133036E+01
  1.2797731975E+01  3.2992264886E+01  6.3042521300E+01  7.4191738081E+01  6.3902458512E+01
  4.6478552502E+01  3.1578316351E+01  2.1167748026E+01  1.3904481218E+01  8.9952111289E+00
  5.8140389571E+00  3.8196819127E+00  2.6771123106E+00  2.1731347026E+00  2.2263359270E+00
  3.0425197623E+00  4.9801549925E+00  8.8110985883E+00  1.5851124698E+01  2.8324074692E+01
  4.5386785529E+01  5.7387282829E+01  4.8947698841E+01  2.4345400369E+01  4.8262679479E+01
  6.3042540797E+01  7.8338537967E+01  7.9657367670E+01  6.6592730727E+01  5.0364852204E+01
  3.6191858730E+01  2.5473855930E+01  1.7467254062E+01  1.1670966566E+01  7.6671666293E+00
  5.0586367412E+00  3.4495104770E+00  2.6389358537E+00  2.4581300445E+00  3.0335955935E+00
  4.6212117292E+00  7.8058461519E+00  1.3637248457E+01  2.3701093300E+01  3.8121336270E+01
  5.2464865630E+01  5.5964353463E+01  4.9150819185E+01  6.5304696627E+01  7.4191738081E+01
  7.9657348173E+01  7.5441772417E+01  6.4546811887E+01  5.1615690794E+01  3.9667677135E+01
  2.9385630975E+01  2.0945203739E+01  1.4463994366E+01  9.6636208259E+00  6.3511530327E+00
  4.2494421440E+00  3.0575264036E+00  2.5937249194E+00  2.8595234282E+00  3.9985911761E+00
  6.3930692689E+00  1.0715873966E+01  1.7895007315E+01  2.8849042710E+01  4.1802124802E+01
  5.2708690955E+01  5.8856663935E+01  5.7458486083E+01  6.3902458512E+01  6.6592740476E+01
  6.4546816761E+01  5.8542688197E+01  5.0364847330E+01  4.1343027592E+01  3.2377113229E+01
  2.4006007780E+01  1.6918136501E+01  1.1489430684E+01  7.5425042724E+00  4.9461143489E+00
  3.3807787801E+00  2.6275998380E+00  2.5755091843E+00  3.2692074786E+00  4.8942829451E+00
  7.8457030114E+00  1.2626906070E+01  1.9779907270E+01  2.9242378783E+01  3.9449778022E+01
  4.9024804829E+01  4.0531962191E+01  4.6478557376E+01  5.0364847330E+01  5.1615685919E+01
  5.0364857078E+01  4.6478562251E+01  4.0531962191E+01  3.3355085626E+01  2.5808028182E+01
  1.8594421598E+01  1.2771902030E+01  8.3737241469E+00  5.3943855129E+00  3.5350778828E+00
  2.5417855202E+00  2.2187200413E+00  2.5417850633E+00  3.5350778828E+00  5.3943830758E+00
  8.3737180540E+00  1.2771903249E+01  1.8594425254E+01  2.5808020870E+01  3.3355075878E+01
  2.6312251331E+01  3.1578321226E+01  3.6191858730E+01  3.9667672261E+01  4.1343022718E+01
  4.0531962191E+01  3.7261594028E+01  3.2045977644E+01  2.5659338748E+01  1.8906608480E+01
  1.3082003946E+01  8.5951960958E+00  5.4486896920E+00  3.4652208402E+00  2.3242629440E+00
  1.8307773423E+00  1.8737680492E+00  2.4102327813E+00  3.4983234926E+00  5.2715741579E+00
  7.8953297246E+00  1.1433089062E+01  1.5844365312E+01  2.0881726194E+01  1.6896767726E+01
  2.1167748026E+01  2.5473855930E+01  2.9385630975E+01  3.2377113229E+01  3.3355085626E+01
  3.2045975206E+01  2.8556189597E+01  2.3415980519E+01  1.7570695700E+01  1.2320277068E+01
  8.1080261698E+00  5.1026245398E+00  3.1613866189E+00  2.0135389501E+00  1.4445462718E+00
  1.3135173640E+00  1.5544813437E+00  2.1496142447E+00  3.1557346048E+00  4.7052580600E+00
  6.8311651015E+00  9.5974088191E+00  1.2971405670E+01  1.0678484702E+01  1.3904481218E+01
  1.7467250406E+01  2.0945193990E+01  2.4006002906E+01  2.5808025745E+01  2.5659336311E+01
  2.3415978082E+01  1.9513499478E+01  1.4905577126E+01  1.0595391900E+01  7.0010094517E+00
  4.3981300546E+00  2.6546891714E+00  1.6256352452E+00  1.0827310768E+00  8.9941342211E-01
  9.5551925110E-01  1.2637939272E+00  1.8254447448E+00  2.7039743814E+00  3.9747685138E+00
  5.7128754285E+00  7.9176179075E+00  6.6952925458E+00  8.9952111289E+00  1.1670967785E+01
  1.4463994366E+01  1.6918136501E+01  1.8594420379E+01  1.8906607262E+01  1.7570698137E+01
  1.4905575907E+01  1.1606651867E+01  8.3203448595E+00  5.5344797908E+00  3.4638469070E+00
  2.0662172573E+00  1.2117377741E+00  7.5927192482E-01  5.8612004349E-01  5.7330476477E-01
  7.0807486083E-01  1.0170422918E+00  1.5246954759E+00  2.2819287397E+00  3.3670976340E+00
  4.8038833154E+00  4.2214995098E+00  5.8140401757E+00  7.6671672386E+00  9.6636202166E+00
  1.1489429465E+01  1.2771902030E+01  1.3082003946E+01  1.2320277068E+01  1.0595391900E+01
  8.3203460781E+00  6.0114893127E+00  4.0183895239E+00  2.4990475135E+00  1.4640602368E+00
  8.4557115579E-01  5.1628238369E-01  3.6487493830E-01  3.3637412461E-01  3.9551475435E-01
  5.7155014385E-01  8.6695150704E-01  1.3333480038E+00  2.0168455291E+00  2.9622732252E+00
  2.7670988464E+00  3.8196816081E+00  5.0586333901E+00  6.3511524234E+00  7.5425048816E+00
  8.3737241469E+00  8.5951960958E+00  8.1080261698E+00  7.0010100610E+00  5.5344791815E+00
  4.0183876961E+00  2.6927157447E+00  1.6482883888E+00  9.7367002142E-01  5.4752184849E-01
  3.2390316697E-01  2.1522099047E-01  1.9518540305E-01  2.3344531268E-01  3.4153768415E-01
  5.3472427706E-01  8.4047892044E-01  1.2885395010E+00  1.9257135412E+00  1.9833547635E+00
  2.6771120059E+00  3.4495086491E+00  4.2494427533E+00  4.9461143489E+00  5.3943861222E+00
  5.4486909105E+00  5.1026251490E+00  4.3981306638E+00  3.4638462977E+00  2.4990453810E+00
  1.6482896073E+00  1.0358991450E+00  5.9618067741E-01  3.4439091856E-01  1.9775383572E-01
  1.3917717359E-01  1.2085779371E-01  1.5639465557E-01  2.4833455279E-01  4.0530897926E-01
  6.3515026850E-01  9.6187277851E-01  1.4061267110E+00  1.7106577998E+00  2.1731347026E+00
  2.6389361583E+00  3.0575264036E+00  3.3807787801E+00  3.5350778828E+00  3.4652217541E+00
  3.1613863143E+00  2.6546885621E+00  2.0662177143E+00  1.4640602368E+00  9.7366956446E-01
  5.9618067741E-01  3.5802442633E-01  2.0586796264E-01  1.2974052167E-01  9.8557187062E-02
  1.0633580847E-01  1.5323463763E-01  2.4758543929E-01  4.0608829035E-01  6.3353734396E-01
  9.3228713636E-01  1.2978836181E+00  1.9531861136E+00  2.2263365363E+00  2.4581292829E+00
  2.5937243102E+00  2.6275995334E+00  2.5417853679E+00  2.3242629440E+00  2.0135386454E+00
  1.6256353976E+00  1.2117386881E+00  8.4557153659E-01  5.4752234353E-01  3.4439091856E-01
  2.0586803880E-01  1.3341690699E-01  1.0562355659E-01  1.0743715421E-01  1.3966656116E-01
  2.1682789833E-01  3.7039138697E-01  5.9045528274E-01  8.7791997270E-01  1.2287967092E+00
  1.5998966924E+00  2.8740718887E+00  3.0425206762E+00  3.0335949843E+00  2.8595234282E+00
  2.5755085750E+00  2.2187204982E+00  1.8307773423E+00  1.4445465764E+00  1.0827310768E+00
  7.5927184866E-01  5.1628245985E-01  3.2390328121E-01  1.9775364532E-01  1.2974052167E-01
  1.0562358515E-01  1.0696675914E-01  1.5037617672E-01  2.3689545406E-01  4.1012555211E-01
  6.7600098290E-01  1.0723202574E+00  1.5498562761E+00  2.0772955462E+00  2.5283825118E+00
  4.9693374767E+00  4.9801559064E+00  4.6212117292E+00  3.9985914808E+00  3.2692074786E+00
  2.5417861295E+00  1.8737672876E+00  1.3135178210E+00  8.9941349827E-01  5.8612004349E-01
  3.6487493830E-01  2.1522112375E-01  1.3917723071E-01  9.8557139461E-02  1.0743723989E-01
  1.5037620528E-01  2.5601016728E-01  4.5334241721E-01  8.0827755003E-01  1.3602594266E+00
  2.0844669600E+00  2.9634793010E+00  3.8523233378E+00  4.5641913664E+00  9.0897974470E+00
  8.8110985883E+00  7.8058461519E+00  6.3930698781E+00  4.8942835544E+00  3.5350778828E+00
  2.4102327813E+00  1.5544813437E+00  9.5551909878E-01  5.7330476477E-01  3.3637431501E-01
  1.9518561249E-01  1.2085776515E-01  1.0633583703E-01  1.3966663732E-01  2.3689543502E-01
  4.5334241721E-01  8.6496044622E-01  1.5754126533E+00  2.6197364311E+00  4.0251863809E+00
  5.6763531751E+00  7.3096533534E+00  8.5596517416E+00  1.6760005617E+01  1.5851125917E+01
  1.3637247239E+01  1.0715876403E+01  7.8457005743E+00  5.3943830758E+00  3.4983228833E+00
  2.1496142447E+00  1.2637941557E+00  7.0807524163E-01  3.9551464011E-01  2.3344525555E-01
  1.5639444613E-01  1.5323463763E-01  2.1682774601E-01  4.1012555211E-01  8.0827747387E-01
  1.5754126533E+00  2.8357827145E+00  4.7782510824E+00  7.4104878691E+00  1.0554088602E+01
  1.3668178102E+01  1.5944911637E+01  3.0360961521E+01  2.8324072255E+01  2.3701090863E+01
  1.7895007315E+01  1.2626907289E+01  8.3737192726E+00  5.2715741579E+00  3.1557352140E+00
  1.8254447448E+00  1.0170426726E+00  5.7155014385E-01  3.4153814112E-01  2.4833438143E-01
  2.4758540121E-01  3.7039138697E-01  6.7600113522E-01  1.3602592742E+00  2.6197364311E+00
  4.7782501685E+00  8.1211038210E+00  1.2890863326E+01  1.8685530128E+01  2.4734924767E+01
  2.9059757158E+01  4.8657041584E+01  4.5386785529E+01  3.8121336270E+01  2.8849045147E+01
  1.9779903614E+01  1.2771903249E+01  7.8953321617E+00  4.7052586693E+00  2.7039743814E+00
  1.5246953236E+00  8.6695150704E-01  5.3472446746E-01  4.0530905542E-01  4.0608832843E-01
  5.9045535890E-01  1.0723202574E+00  2.0844668076E+00  4.0251860763E+00  7.4104872598E+00
  1.2890864544E+01  2.0890109929E+01  3.1084470511E+01  4.0703336451E+01  4.7116276877E+01
  5.9226337891E+01  5.7387287703E+01  5.2464865630E+01  4.1802129676E+01  2.9242378783E+01
  1.8594427691E+01  1.1433087843E+01  6.8311644922E+00  3.9747688184E+00  2.2819293489E+00
  1.3333480038E+00  8.4047869196E-01  6.3515045890E-01  6.3353738204E-01  8.7792020118E-01
  1.5498558191E+00  2.9634793010E+00  5.6763525658E+00  1.0554089821E+01  1.8685535003E+01
  3.1084468074E+01  4.5423712956E+01  5.6598105312E+01  5.9934924321E+01  4.4443454528E+01
  4.8947698841E+01  5.5964348588E+01  5.2708686081E+01  3.9449773148E+01  2.5808018433E+01
  1.5844367749E+01  9.5974088191E+00  5.7128748193E+00  3.3670976340E+00  2.0168450722E+00
  1.2885402626E+00  9.6187262619E-01  9.3228713636E-01  1.2287965569E+00  2.0772960032E+00
  3.8523242518E+00  7.3096533534E+00  1.3668179320E+01  2.4734924767E+01  4.0703336451E+01
  5.6598110187E+01  6.0321117159E+01  5.1519531307E+01  1.1447134255E+01  2.4345400369E+01
  4.9150814310E+01  5.8856663935E+01  4.9024809703E+01  3.3355075878E+01  2.0881726194E+01
  1.2971403233E+01  7.9176179075E+00  4.8038848386E+00  2.9622738345E+00  1.9257132366E+00
  1.4061265587E+00  1.2978836181E+00  1.5998963878E+00  2.5283831211E+00  4.5641913664E+00
  8.5596517416E+00  1.5944911637E+01  2.9059749846E+01  4.7116276877E+01  5.9934919447E+01
  5.1519531307E+01  2.6158390303E+01  3.5946100759E+01  4.8262679479E+01  6.5855186293E+01
  6.9117624028E+01  5.6970596593E+01  4.1343022718E+01  2.8314121444E+01  1.9101705785E+01
  1.2623977856E+01  8.2098934202E+00  5.3266972133E+00  3.5062286354E+00  2.4625129221E+00
  1.9991757116E+00  2.0369402932E+00  2.7944102634E+00  4.5596729234E+00  8.0088769310E+00
  1.4308859937E+01  2.5294483002E+01  4.0802120729E+01  5.4937326469E+01  5.5368674492E+01
  4.2498920386E+01  4.8262679479E+01  6.3042516426E+01  7.8338537967E+01  7.9657357921E+01
  6.6592745350E+01  5.0364852204E+01  3.6191858730E+01  2.5473858367E+01  1.7467254062E+01
  1.1670966566E+01  7.6671666293E+00  5.0586343041E+00  3.4495092584E+00  2.6389379862E+00
  2.4581295876E+00  3.0335958982E+00  4.6212117292E+00  7.8058449334E+00  1.3637248457E+01
  2.3701090863E+01  3.8121336270E+01  5.2464865630E+01  5.5964348588E+01  4.9150819185E+01
  6.5855196041E+01  7.8338547715E+01  8.7995513343E+01  8.5640960958E+01  7.3375717991E+01
  5.8542693071E+01  4.4650752117E+01  3.2871368507E+01  2.3289398311E+01  1.5954240979E+01
  1.0609992758E+01  6.9445843584E+00  4.6310345905E+00  3.3256907585E+00  2.8220960849E+00
  3.1133891287E+00  4.3645658703E+00  6.9912499559E+00  1.1824107422E+01  1.9959355749E+01
  3.2181674726E+01  4.6137436861E+01  5.5617320464E+01  5.9377976254E+01  6.9117614279E+01
  7.9657348173E+01  8.5640970707E+01  8.3658305195E+01  7.5979057701E+01  6.4546816761E+01
  5.2311911215E+01  4.0560976250E+01  2.9920981176E+01  2.0852624399E+01  1.3943892083E+01
  9.0671875626E+00  5.8823913752E+00  4.0069569369E+00  3.1066635578E+00  3.0547730535E+00
  3.8784941770E+00  5.8426776972E+00  9.4621821035E+00  1.5375250271E+01  2.4628799847E+01
  3.6239918977E+01  4.8297125905E+01  5.8747509659E+01  5.6970591719E+01  6.6592740476E+01
  7.3375703368E+01  7.5979057701E+01  7.3375717991E+01  6.6592740476E+01  5.6970591719E+01
  4.6390693887E+01  3.5788966663E+01  2.5766762660E+01  1.7206151907E+01  1.1111004986E+01
  7.0406238166E+00  4.5887640562E+00  3.2720360752E+00  2.8713097041E+00  3.2720360752E+00
  4.5887622283E+00  7.0406195516E+00  1.1111001330E+01  1.7206151907E+01  2.5766760223E+01
  3.5788954477E+01  4.6390684139E+01  4.1343022718E+01  5.0364852204E+01  5.8542688197E+01
  6.4546816761E+01  6.6592745350E+01  6.3902453638E+01  5.7458490957E+01  4.9024799954E+01
  3.9449787771E+01  2.9242376346E+01  1.9779907270E+01  1.2626912163E+01  7.8457054486E+00
  4.8942862961E+00  3.2692065647E+00  2.5755097936E+00  2.6276010566E+00  3.3807784755E+00
  4.9461140442E+00  7.5425067095E+00  1.1489430684E+01  1.6918131627E+01  2.4005995595E+01
  3.2377113229E+01  2.8314121444E+01  3.6191858730E+01  4.4650752117E+01  5.2311906341E+01
  5.6970591719E+01  5.7458490957E+01  5.4006702675E+01  4.8225815418E+01  4.0150926325E+01
  3.0391966716E+01  2.0720726806E+01  1.3170251283E+01  8.0715307248E+00  4.9033920312E+00
  3.0861063479E+00  2.2182105283E+00  2.0141642268E+00  2.3776714770E+00  3.2842808365E+00
  4.8806785687E+00  7.3224994770E+00  1.0827957674E+01  1.5479382835E+01  2.1351420055E+01
  1.9101708222E+01  2.5473860804E+01  3.2871375819E+01  4.0560976250E+01  4.6390693887E+01
  4.9024799954E+01  4.8225815418E+01  4.4402978637E+01  3.7536948532E+01  2.8670461850E+01
  1.9620404281E+01  1.2514019327E+01  7.6104259274E+00  4.5295286448E+00  2.7360503918E+00
  1.8161077868E+00  1.4931612704E+00  1.5906672729E+00  2.0843122021E+00  3.0074472978E+00
  4.5050857324E+00  6.7264098494E+00  9.7780856126E+00  1.3881762272E+01  1.2623977856E+01
  1.7467251625E+01  2.3289400748E+01  2.9920981176E+01  3.5788966663E+01  3.9449787771E+01
  4.0150926325E+01  3.7536943658E+01  3.1905418483E+01  2.4407152424E+01  1.6761213216E+01
  1.0805922344E+01  6.5710116000E+00  3.8667499417E+00  2.2533480337E+00  1.4039029802E+00
  1.0539273733E+00  1.0173764835E+00  1.2724697369E+00  1.8026059223E+00  2.6928174949E+00
  4.0723890615E+00  6.0771005665E+00  8.8720695424E+00  8.2098934202E+00  1.1670967785E+01
  1.5954242198E+01  2.0852621962E+01  2.5766760223E+01  2.9242373908E+01  3.0391964279E+01
  2.8670461850E+01  2.4407152424E+01  1.8591161934E+01  1.3055462358E+01  8.4843766495E+00
  5.1808884698E+00  3.0178757864E+00  1.7119371418E+00  1.0211575418E+00  7.1294089985E-01
  6.3567745065E-01  7.5115155275E-01  1.0405520873E+00  1.5791474061E+00  2.4353684486E+00
  3.7351822754E+00  5.5997388789E+00  5.3266959947E+00  7.6671672386E+00  1.0609990321E+01
  1.3943889645E+01  1.7206151907E+01  1.9779907270E+01  2.0720726806E+01  1.9620404281E+01
  1.6761216872E+01  1.3055462358E+01  9.2812457554E+00  6.0879604274E+00  3.7466532473E+00
  2.1463754483E+00  1.2086581530E+00  6.8997016754E-01  4.5226010205E-01  3.8156411476E-01
  4.3015352349E-01  6.0298027616E-01  9.2673481615E-01  1.4650874880E+00  2.3174237419E+00
  3.5533563741E+00  3.5062295493E+00  5.0586343041E+00  6.9445849677E+00  9.0671875626E+00
  1.1111004986E+01  1.2626908507E+01  1.3170253721E+01  1.2514020545E+01  1.0805923562E+01
  8.4843778681E+00  6.0879604274E+00  4.0528042673E+00  2.4565906909E+00  1.4271954139E+00
  7.8341720252E-01  4.4218983384E-01  2.7319636639E-01  2.2854361156E-01  2.5884592288E-01
  3.7251207276E-01  5.8514199188E-01  9.4256101935E-01  1.5062829423E+00  2.3391312781E+00
  2.4625124651E+00  3.4495092584E+00  4.6310345905E+00  5.8823913752E+00  7.0406232073E+00
  7.8457030114E+00  8.0715307248E+00  7.6104277552E+00  6.5710116000E+00  5.1808890791E+00
  3.7466535519E+00  2.4565906909E+00  1.5283289353E+00  8.7288607620E-01  4.7473822902E-01
  2.6454205293E-01  1.7146365323E-01  1.4449878497E-01  1.7201867200E-01  2.6706374216E-01
  4.3850431879E-01  7.0199193126E-01  1.0918342224E+00  1.6788715034E+00  1.9991764732E+00
  2.6389358537E+00  3.3256907585E+00  4.0069548044E+00  4.5887640562E+00  4.8942862961E+00
  4.9033914219E+00  4.5295292541E+00  3.8667505510E+00  3.0178751771E+00  2.1463752960E+00
  1.4271955663E+00  8.7288615236E-01  5.0462382882E-01  2.8554196404E-01  1.7325829643E-01
  1.2363846631E-01  1.1721412879E-01  1.6505412890E-01  2.5574223506E-01  4.2710406186E-01
  6.7001835654E-01  1.0063917195E+00  1.4470833264E+00  2.0369407501E+00  2.4581295876E+00
  2.8220960849E+00  3.1066638624E+00  3.2720360752E+00  3.2692062601E+00  3.0861069572E+00
  2.7360503918E+00  2.2533483384E+00  1.7119371418E+00  1.2086567060E+00  7.8341705020E-01
  4.7473815286E-01  2.8554192596E-01  1.7786828425E-01  1.2610320662E-01  1.1715710371E-01
  1.4206575594E-01  2.1555236428E-01  3.5973974849E-01  5.7791033529E-01  8.7502587824E-01
  1.2361229570E+00  1.6461863623E+00  2.7944108727E+00  3.0335962028E+00  3.1133885194E+00
  3.0547727489E+00  2.8713093994E+00  2.5755100982E+00  2.2182106807E+00  1.8161077868E+00
  1.4039029802E+00  1.0211573133E+00  6.8997001522E-01  4.4218968152E-01  2.6454205293E-01
  1.7325846779E-01  1.2610326374E-01  1.2634078893E-01  1.5255338303E-01  2.3086419931E-01
  3.8662203986E-01  6.3425854468E-01  1.0026003797E+00  1.4524910180E+00  1.9465848365E+00
  2.4215710818E+00  4.5596735326E+00  4.6212117292E+00  4.3645664796E+00  3.8784941770E+00
  3.2720360752E+00  2.6276010566E+00  2.0141640745E+00  1.4931612704E+00  1.0539273733E+00
  7.1294112833E-01  4.5226006397E-01  2.7319621407E-01  1.7146380555E-01  1.2363838063E-01
  1.1715708467E-01  1.5255347823E-01  2.4626995912E-01  4.2707428315E-01  7.4211497130E-01
  1.2401972327E+00  1.8959497600E+00  2.6724257054E+00  3.4830000240E+00  4.1594117399E+00
  8.0088769310E+00  7.8058461519E+00  6.9912517838E+00  5.8426783065E+00  4.5887622283E+00
  3.3807784755E+00  2.3776710200E+00  1.5906674252E+00  1.0173761789E+00  6.3567745065E-01
  3.8156381012E-01  2.2854357348E-01  1.4449868025E-01  1.1721409071E-01  1.4206567978E-01
  2.3086431355E-01  4.2707420699E-01  7.8874081311E-01  1.4194818906E+00  2.3255919427E+00
  3.5810674808E+00  5.0086755317E+00  6.4247532057E+00  7.5058284796E+00  1.4308861155E+01
  1.3637247239E+01  1.1824108640E+01  9.4621845406E+00  7.0406195516E+00  4.9461131303E+00
  3.2842808365E+00  2.0843120497E+00  1.2724698893E+00  7.5115117195E-01  4.3015352349E-01
  2.5884598000E-01  1.7201872912E-01  1.6505410986E-01  2.1555226908E-01  3.8662203986E-01
  7.4211489514E-01  1.4194815860E+00  2.5230451924E+00  4.2024987134E+00  6.4457478807E+00
  9.1058855658E+00  1.1709268535E+01  1.3632723921E+01  2.5294483002E+01  2.3701090863E+01
  1.9959355749E+01  1.5375251489E+01  1.1111001330E+01  7.5425067095E+00  4.8806797872E+00
  3.0074466886E+00  1.8026063793E+00  1.0405518588E+00  6.0298039040E-01  3.7251207276E-01
  2.6706362792E-01  2.5574223506E-01  3.5973982465E-01  6.3425877316E-01  1.2401974612E+00
  2.3255923996E+00  4.2024981042E+00  7.0370333116E+00  1.1000828333E+01  1.5724134271E+01